 Entering Gaussian System
 *********************************************
 Gaussian 98:
 frequency output generated by the xtb code
 *********************************************
                         Standard orientation:
 --------------------------------------------------------------------
  Center     Atomic     Atomic              Coordinates (Angstroms)
  Number     Number      Type              X           Y           Z
 --------------------------------------------------------------------
    1         28             0        0.035858   -0.077409   -0.736081
    2          7             0       -1.680057   -0.006002    0.567564
    3          6             0       -2.855828    0.405967    0.244673
    4          7             0       -3.960246    0.254849    1.017598
    5          6             0       -5.238397    0.825828    0.655980
    6          6             0       -5.918107    0.097373   -0.508408
    7          6             0       -5.394635    0.558629   -1.865209
    8          6             0       -3.899763    0.314237   -2.051961
    9          6             0       -3.015373    1.099279   -1.077837
   10          6             0       -3.974136   -0.660096    2.143624
   11          6             0       -2.761947   -1.575550    2.095185
   12          6             0       -1.537443   -0.706056    1.831596
   13          1             0       -5.873522    0.775831    1.544694
   14          1             0       -5.112453    1.882717    0.403790
   15          1             0       -6.993670    0.281080   -0.460889
   16          1             0       -5.756898   -0.977167   -0.396886
   17          1             0       -5.600758    1.626225   -1.981841
   18          1             0       -5.939907    0.031897   -2.651833
   19          1             0       -3.680469   -0.750227   -1.951547
   20          1             0       -3.629935    0.605780   -3.068810
   21          1             0       -2.003352    1.169592   -1.498225
   22          1             0       -3.402592    2.111819   -0.945263
   23          1             0       -4.897072   -1.250241    2.106604
   24          1             0       -3.978296   -0.085695    3.081387
   25          1             0       -2.867924   -2.290456    1.276486
   26          1             0       -2.664377   -2.126334    3.030404
   27          1             0       -0.628999   -1.310818    1.787948
   28          1             0       -1.423291    0.026011    2.642269
   29          7             0        1.616041    0.150916    0.713854
   30          6             0        2.812067   -0.311865    0.604869
   31          7             0        3.838360    0.014656    1.429454
   32          6             0        5.136606   -0.614077    1.331011
   33          6             0        5.938878   -0.156766    0.108125
   34          6             0        5.542600   -0.908372   -1.159079
   35          6             0        4.077162   -0.719735   -1.541463
   36          6             0        3.089847   -1.277408   -0.511214
   37          6             0        3.756794    1.156048    2.321520
   38          6             0        2.565089    2.026479    1.958065
   39          6             0        1.361509    1.108346    1.775426
   40          1             0        5.682320   -0.364833    2.245232
   41          1             0        5.019207   -1.701339    1.307000
   42          1             0        7.001368   -0.320290    0.301137
   43          1             0        5.785960    0.915134   -0.035834
   44          1             0        5.741863   -1.974284   -1.017635
   45          1             0        6.170446   -0.564497   -1.984362
   46          1             0        3.865959    0.339487   -1.698577
   47          1             0        3.903209   -1.228869   -2.491359
   48          1             0        2.122915   -1.445192   -1.003814
   49          1             0        3.446793   -2.233479   -0.122207
   50          1             0        4.685884    1.732229    2.242050
   51          1             0        3.666286    0.803219    3.359137
   52          1             0        2.756676    2.545910    1.016749
   53          1             0        2.384954    2.767651    2.736384
   54          1             0        0.467979    1.679829    1.514929
   55          1             0        1.163185    0.569456    2.711626
   56          6             0        0.701300    1.290550   -1.650078
   57          8             0        1.555887    1.945975   -2.061031
   58          6             0       -0.549694   -1.616378   -1.397212
   59          8             0       -1.364926   -2.355417   -1.740955
 --------------------------------------------------------------------
     1 basis functions        1 primitive gaussians
     1 alpha electrons        1 beta electrons

 Harmonic frequencies (cm**-1), IR intensities (km*mol⁻¹),
 Raman scattering activities (A**4/amu), Raman depolarization ratios,
 reduced masses (AMU), force constants (mDyne/A) and normal coordinates:
                      1                      2                      3
                        a                      a                      a 
 Frequencies --    16.6380                18.4481                26.6586
 Red. masses --    11.7227                15.6691                13.9407
 Frc consts  --     0.0000                 0.0000                 0.0000
 IR Inten    --     0.8332                 0.8967                 0.4170
 Raman Activ --     0.0000                 0.0000                 0.0000
 Depolar     --     0.0000                 0.0000                 0.0000
 Atom AN      X      Y      Z        X      Y      Z        X      Y      Z
   1  28     0.01  -0.01  -0.15    -0.02   0.30  -0.03     0.02  -0.18   0.03
   2   7     0.05  -0.06  -0.02     0.00   0.08  -0.01    -0.02  -0.12  -0.04
   3   6     0.04  -0.02   0.05    -0.02  -0.01  -0.02     0.01  -0.05  -0.03
   4   7     0.07  -0.09   0.08    -0.01  -0.05  -0.00     0.01   0.08   0.00
   5   6     0.06  -0.04   0.16    -0.05  -0.15  -0.02     0.05   0.16   0.01
   6   6     0.02   0.07   0.12    -0.00  -0.25   0.01    -0.05   0.16   0.07
   7   6    -0.02   0.19   0.14    -0.04  -0.27  -0.01    -0.04   0.03   0.03
   8   6    -0.03   0.19   0.07    -0.03  -0.17  -0.01    -0.06  -0.11   0.01
   9   6     0.01   0.09   0.11    -0.07  -0.08  -0.04     0.03  -0.12  -0.07
  10   6     0.09  -0.20  -0.02     0.06   0.02   0.05    -0.02   0.14   0.06
  11   6     0.09  -0.19  -0.13     0.11   0.08   0.08    -0.10   0.04   0.07
  12   6     0.08  -0.16  -0.08     0.06   0.13   0.02    -0.03  -0.07  -0.01
  13   1     0.02  -0.03   0.05    -0.01  -0.04  -0.01     0.02   0.08   0.01
  14   1     0.02  -0.01   0.07    -0.03  -0.04  -0.02     0.04   0.04  -0.02
  15   1     0.01   0.02   0.05    -0.00  -0.09   0.00    -0.01   0.08   0.03
  16   1     0.00   0.02   0.00     0.02  -0.07   0.02    -0.04   0.04   0.04
  17   1    -0.00   0.06   0.07    -0.03  -0.08  -0.02     0.01   0.01  -0.01
  18   1    -0.01   0.08   0.03    -0.00  -0.10   0.00    -0.03   0.01   0.02
  19   1    -0.01   0.05  -0.01     0.01  -0.04   0.01    -0.04  -0.04   0.02
  20   1    -0.02   0.08   0.03    -0.01  -0.06  -0.01    -0.02  -0.06  -0.01
  21   1    -0.00   0.03   0.03    -0.02  -0.01  -0.01     0.01  -0.06  -0.03
  22   1     0.01   0.02   0.06    -0.04  -0.03  -0.02     0.03  -0.02  -0.04
  23   1     0.03  -0.06  -0.02     0.03  -0.01   0.03    -0.02   0.06   0.04
  24   1     0.03  -0.08   0.01     0.01   0.02   0.00     0.02   0.06   0.01
  25   1     0.02  -0.03  -0.05     0.04   0.01   0.03    -0.05   0.00   0.03
  26   1     0.03  -0.08  -0.05     0.04   0.04   0.03    -0.03   0.02   0.03
  27   1     0.03  -0.04  -0.04     0.02   0.05   0.01    -0.02  -0.04  -0.00
  28   1     0.02  -0.06  -0.01     0.01   0.05  -0.00     0.02  -0.01  -0.01
  29   7    -0.05   0.06  -0.04     0.01   0.07  -0.01    -0.02  -0.11   0.07
  30   6    -0.05   0.03   0.04    -0.02  -0.01   0.01     0.00  -0.04   0.04
  31   7    -0.08   0.10   0.05    -0.01  -0.05   0.01     0.02   0.08  -0.02
  32   6    -0.08   0.07   0.14    -0.05  -0.14   0.04     0.06   0.16  -0.05
  33   6    -0.03  -0.05   0.13    -0.00  -0.24   0.04    -0.04   0.14  -0.12
  34   6     0.00  -0.16   0.18    -0.05  -0.25   0.06    -0.04   0.02  -0.05
  35   6     0.02  -0.18   0.12    -0.03  -0.16   0.04    -0.07  -0.12   0.01
  36   6    -0.03  -0.07   0.13    -0.08  -0.06   0.05     0.01  -0.10   0.10
  37   6    -0.08   0.19  -0.08     0.07  -0.00  -0.04    -0.01   0.13  -0.10
  38   6    -0.07   0.16  -0.18     0.12   0.05  -0.07    -0.09   0.03  -0.09
  39   6    -0.07   0.14  -0.12     0.07   0.12  -0.03    -0.03  -0.07   0.03
  40   1    -0.03   0.04   0.04    -0.01  -0.04   0.01     0.03   0.08  -0.03
  41   1    -0.03   0.02   0.07    -0.04  -0.04   0.02     0.04   0.04   0.01
  42   1    -0.01  -0.01   0.05    -0.01  -0.09   0.02    -0.01   0.07  -0.05
  43   1    -0.00  -0.02   0.01     0.02  -0.07   0.00    -0.04   0.03  -0.06
  44   1    -0.01  -0.04   0.08    -0.04  -0.08   0.03     0.01   0.01   0.01
  45   1     0.01  -0.07   0.05    -0.00  -0.09   0.01    -0.03   0.00  -0.03
  46   1     0.01  -0.06   0.00     0.01  -0.04   0.00    -0.05  -0.04  -0.02
  47   1     0.01  -0.08   0.05    -0.02  -0.05   0.01    -0.02  -0.06   0.02
  48   1    -0.00  -0.03   0.03    -0.02  -0.00   0.01     0.00  -0.06   0.05
  49   1    -0.02  -0.01   0.07    -0.04  -0.02   0.02     0.03  -0.01   0.05
  50   1    -0.02   0.05  -0.04     0.03  -0.02  -0.02    -0.02   0.06  -0.06
  51   1    -0.03   0.09  -0.01     0.02   0.01  -0.01     0.02   0.06  -0.02
  52   1    -0.02   0.02  -0.06     0.04   0.00  -0.03    -0.05  -0.00  -0.04
  53   1    -0.03   0.07  -0.07     0.05   0.03  -0.03    -0.03   0.02  -0.04
  54   1    -0.02   0.03  -0.05     0.03   0.05  -0.01    -0.03  -0.04   0.01
  55   1    -0.02   0.06  -0.02     0.01   0.05  -0.00     0.02  -0.01   0.02
  56   6     0.00  -0.03  -0.10    -0.01   0.20   0.08     0.06   0.01   0.19
  57   8     0.02  -0.08  -0.17    -0.01   0.27   0.16     0.12   0.08   0.43
  58   6     0.01   0.01  -0.11     0.00   0.17  -0.11     0.08  -0.03  -0.17
  59   8     0.00   0.05  -0.20     0.01   0.22  -0.21     0.16  -0.01  -0.41
                      4                      5                      6
                        a                      a                      a 
 Frequencies --    27.0876                42.3005                56.3454
 Red. masses --    13.0260                14.7045                15.6172
 Frc consts  --     0.0000                 0.0000                 0.0000
 IR Inten    --     0.9136                 0.1330                 0.0169
 Raman Activ --     0.0000                 0.0000                 0.0000
 Depolar     --     0.0000                 0.0000                 0.0000
 Atom AN      X      Y      Z        X      Y      Z        X      Y      Z
   1  28     0.01  -0.03  -0.23     0.01  -0.02  -0.10     0.01  -0.01  -0.16
   2   7     0.01  -0.07  -0.09    -0.01  -0.03  -0.07     0.03  -0.00  -0.06
   3   6     0.01  -0.02  -0.04    -0.01  -0.02  -0.05     0.02  -0.03  -0.04
   4   7     0.06   0.10   0.05    -0.00  -0.03  -0.05     0.04  -0.03  -0.02
   5   6     0.06   0.15   0.10     0.02   0.04   0.01     0.04   0.00   0.04
   6   6    -0.08   0.10   0.21    -0.06   0.12   0.01    -0.04   0.00   0.08
   7   6    -0.14  -0.06   0.13    -0.06   0.12   0.01    -0.07  -0.05   0.05
   8   6    -0.16  -0.17   0.05    -0.08   0.03  -0.02    -0.08  -0.10   0.01
   9   6    -0.05  -0.13  -0.09    -0.01  -0.01  -0.04    -0.02  -0.08  -0.07
  10   6     0.07   0.17   0.11    -0.02  -0.08  -0.09     0.06  -0.04  -0.03
  11   6     0.01   0.09   0.08    -0.01  -0.07  -0.10     0.08  -0.02  -0.04
  12   6     0.05  -0.01  -0.06    -0.01  -0.04  -0.07     0.05   0.02  -0.05
  13   1     0.04   0.08   0.04     0.01   0.01   0.01     0.02   0.01   0.02
  14   1     0.03   0.04   0.00     0.02   0.01   0.01     0.02  -0.00   0.00
  15   1    -0.02   0.06   0.08    -0.01   0.06   0.01    -0.01   0.01   0.03
  16   1    -0.04   0.03   0.09    -0.04   0.03  -0.01    -0.02  -0.00   0.03
  17   1    -0.02  -0.02   0.01    -0.00   0.04   0.01    -0.01  -0.01   0.01
  18   1    -0.06  -0.03   0.06    -0.03   0.05   0.00    -0.03  -0.02   0.02
  19   1    -0.07  -0.05   0.04    -0.04   0.01  -0.01    -0.03  -0.03   0.01
  20   1    -0.06  -0.08   0.00    -0.03   0.01  -0.01    -0.03  -0.05  -0.01
  21   1    -0.02  -0.07  -0.05    -0.01  -0.02  -0.02    -0.01  -0.04  -0.03
  22   1     0.01  -0.03  -0.04     0.01   0.00  -0.01     0.00  -0.02  -0.03
  23   1     0.01   0.07   0.06    -0.00  -0.03  -0.04     0.02  -0.02  -0.01
  24   1     0.05   0.07   0.02    -0.01  -0.04  -0.02     0.01  -0.02  -0.01
  25   1    -0.03   0.01   0.04     0.00  -0.01  -0.04     0.03  -0.00  -0.01
  26   1     0.01   0.04   0.03    -0.00  -0.03  -0.03     0.03  -0.01  -0.01
  27   1     0.00  -0.02  -0.03    -0.00  -0.01  -0.02     0.02   0.01  -0.01
  28   1     0.04   0.01  -0.03    -0.01  -0.02  -0.02     0.01   0.01  -0.01
  29   7     0.00   0.04  -0.10     0.02   0.02  -0.07    -0.03  -0.01  -0.05
  30   6    -0.01   0.01  -0.04     0.01   0.01  -0.05    -0.01   0.02  -0.05
  31   7    -0.06  -0.08   0.06     0.01   0.02  -0.06    -0.04   0.02  -0.02
  32   6    -0.07  -0.12   0.12    -0.02  -0.04   0.02    -0.04   0.01   0.03
  33   6     0.05  -0.05   0.23     0.06  -0.11   0.04     0.02   0.02   0.08
  34   6     0.12   0.09   0.13     0.06  -0.11   0.04     0.06   0.06   0.04
  35   6     0.16   0.18   0.03     0.08  -0.04  -0.01     0.07   0.10  -0.01
  36   6     0.06   0.10  -0.10     0.02   0.00  -0.04     0.02   0.06  -0.08
  37   6    -0.09  -0.14   0.13     0.03   0.06  -0.10    -0.05   0.03  -0.04
  38   6    -0.02  -0.07   0.09     0.02   0.04  -0.12    -0.07   0.01  -0.05
  39   6    -0.04  -0.01  -0.06     0.02   0.03  -0.07    -0.05  -0.02  -0.04
  40   1    -0.04  -0.06   0.05    -0.01  -0.01   0.01    -0.02  -0.01   0.02
  41   1    -0.03  -0.03   0.00    -0.02  -0.01   0.01    -0.02   0.00   0.00
  42   1     0.01  -0.03   0.09     0.01  -0.05   0.03     0.00  -0.00   0.03
  43   1     0.03  -0.01   0.09     0.04  -0.03   0.01     0.02   0.01   0.03
  44   1     0.02   0.02   0.01     0.00  -0.03   0.02     0.01   0.02   0.01
  45   1     0.06   0.04   0.06     0.03  -0.04   0.02     0.03   0.02   0.02
  46   1     0.06   0.06   0.03     0.04  -0.01  -0.00     0.03   0.03   0.01
  47   1     0.06   0.08  -0.01     0.03  -0.01  -0.00     0.03   0.04  -0.01
  48   1     0.03   0.05  -0.06     0.01   0.01  -0.02     0.01   0.03  -0.04
  49   1    -0.00   0.02  -0.05    -0.01  -0.00  -0.01    -0.00   0.01  -0.03
  50   1    -0.02  -0.05   0.07     0.01   0.02  -0.04    -0.02   0.01  -0.01
  51   1    -0.06  -0.06   0.03     0.01   0.03  -0.02    -0.01   0.01  -0.01
  52   1     0.02  -0.01   0.04    -0.00   0.00  -0.04    -0.02   0.00  -0.01
  53   1    -0.02  -0.03   0.03     0.01   0.02  -0.04    -0.02   0.00  -0.02
  54   1    -0.00   0.01  -0.03     0.00   0.00  -0.02    -0.02  -0.01  -0.01
  55   1    -0.04  -0.02  -0.03     0.01   0.01  -0.02    -0.01  -0.01  -0.01
  56   6    -0.06   0.01  -0.12    -0.08   0.13   0.10     0.21  -0.04   0.03
  57   8    -0.12   0.05  -0.17    -0.18   0.42   0.37     0.47  -0.15   0.32
  58   6     0.08  -0.04  -0.11     0.06  -0.10   0.13    -0.21   0.04  -0.00
  59   8     0.14  -0.09  -0.16     0.13  -0.33   0.47    -0.50   0.22   0.24
                      7                      8                      9
                        a                      a                      a 
 Frequencies --    58.3943                58.5421                65.9763
 Red. masses --    13.4106                14.3449                16.1203
 Frc consts  --     0.0000                 0.0000                 0.0000
 IR Inten    --     0.3327                 0.2397                 0.8245
 Raman Activ --     0.0000                 0.0000                 0.0000
 Depolar     --     0.0000                 0.0000                 0.0000
 Atom AN      X      Y      Z        X      Y      Z        X      Y      Z
   1  28     0.19   0.14   0.10    -0.09  -0.03   0.26     0.16  -0.12   0.02
   2   7    -0.01   0.00  -0.09    -0.12   0.00   0.06     0.04  -0.12  -0.00
   3   6    -0.03  -0.07  -0.12    -0.11  -0.03   0.01     0.06  -0.05  -0.01
   4   7    -0.02  -0.11  -0.12    -0.14  -0.07  -0.03     0.05   0.02  -0.02
   5   6     0.02   0.06   0.04    -0.12  -0.01  -0.01     0.07   0.05  -0.05
   6   6    -0.21   0.18   0.09    -0.14   0.06  -0.04     0.06   0.04  -0.03
   7   6    -0.21   0.07   0.06    -0.10   0.07  -0.02     0.09  -0.02  -0.04
   8   6    -0.25  -0.16  -0.01    -0.11   0.01   0.00     0.08  -0.07  -0.02
   9   6    -0.08  -0.17  -0.16    -0.09  -0.03   0.01     0.08  -0.07  -0.02
  10   6    -0.04  -0.19  -0.18    -0.16  -0.08  -0.04     0.02   0.08   0.04
  11   6     0.05  -0.06  -0.13    -0.11  -0.02   0.02    -0.06  -0.02   0.03
  12   6    -0.02   0.07  -0.04    -0.14   0.03   0.07     0.01  -0.13  -0.01
  13   1     0.03   0.03   0.03    -0.03  -0.01  -0.00     0.02   0.03  -0.02
  14   1     0.04   0.01   0.01    -0.02  -0.00   0.01     0.03   0.01  -0.02
  15   1    -0.05   0.11   0.05    -0.04   0.03  -0.01     0.02   0.02  -0.01
  16   1    -0.12   0.04   0.03    -0.06   0.01  -0.02     0.01   0.01   0.00
  17   1    -0.02   0.03   0.01    -0.02   0.02   0.00     0.03  -0.01  -0.02
  18   1    -0.09   0.04   0.03    -0.03   0.03  -0.01     0.02  -0.01  -0.01
  19   1    -0.11  -0.05   0.03    -0.04  -0.00   0.00     0.01  -0.02   0.00
  20   1    -0.08  -0.09  -0.02    -0.02  -0.00   0.00     0.03  -0.03  -0.01
  21   1    -0.03  -0.08  -0.07    -0.02  -0.01   0.00     0.02  -0.03  -0.00
  22   1     0.01  -0.03  -0.06    -0.02  -0.00   0.00     0.03  -0.02  -0.01
  23   1     0.00  -0.08  -0.09    -0.04  -0.03  -0.03    -0.01   0.04   0.03
  24   1    -0.06  -0.08  -0.04    -0.07  -0.03  -0.01     0.03   0.04   0.00
  25   1     0.05  -0.02  -0.04    -0.01  -0.01   0.01    -0.04  -0.01   0.01
  26   1     0.02  -0.02  -0.04    -0.04  -0.00   0.01    -0.03  -0.00   0.01
  27   1     0.02   0.05   0.02    -0.03   0.02   0.04    -0.01  -0.06  -0.01
  28   1    -0.05   0.03  -0.02    -0.06   0.01   0.02     0.03  -0.04  -0.00
  29   7     0.07   0.02   0.11     0.09  -0.01  -0.01     0.03  -0.11   0.03
  30   6     0.05  -0.01   0.10     0.11   0.05  -0.08     0.05  -0.05   0.03
  31   7     0.08  -0.01   0.08     0.13   0.10  -0.12     0.04   0.02   0.02
  32   6     0.10   0.05  -0.03     0.07  -0.03   0.03     0.06   0.06   0.04
  33   6    -0.04   0.07  -0.12     0.24  -0.15   0.10     0.04   0.05   0.03
  34   6    -0.07  -0.02  -0.06     0.22  -0.09   0.07     0.07  -0.01   0.05
  35   6    -0.10  -0.12   0.03     0.26   0.10  -0.00     0.07  -0.07   0.04
  36   6    -0.01  -0.07   0.14     0.13   0.11  -0.12     0.07  -0.06   0.05
  37   6     0.07  -0.05   0.12     0.16   0.15  -0.19     0.01   0.07  -0.04
  38   6     0.11  -0.00   0.12     0.05   0.04  -0.08    -0.06  -0.03  -0.02
  39   6     0.08   0.05   0.08     0.11  -0.07   0.05    -0.00  -0.12   0.04
  40   1     0.05   0.02  -0.03     0.00  -0.01   0.02     0.01   0.03   0.01
  41   1     0.04   0.01  -0.00    -0.01  -0.00   0.02     0.03   0.02   0.02
  42   1    -0.00   0.05  -0.06     0.06  -0.09   0.05     0.01   0.03   0.01
  43   1    -0.04   0.01  -0.04     0.12  -0.04   0.03     0.00   0.01  -0.00
  44   1     0.00   0.00  -0.01     0.02  -0.03   0.02     0.03   0.00   0.03
  45   1    -0.04  -0.00  -0.03     0.09  -0.04   0.03     0.02  -0.01   0.01
  46   1    -0.05  -0.04  -0.01     0.11   0.04   0.02     0.01  -0.02   0.00
  47   1    -0.04  -0.06   0.02     0.08   0.06  -0.02     0.03  -0.03   0.02
  48   1    -0.01  -0.04   0.06     0.05   0.06  -0.06     0.02  -0.02   0.01
  49   1     0.01  -0.01   0.05     0.01   0.02  -0.04     0.03  -0.01   0.02
  50   1     0.03  -0.02   0.05     0.03   0.06  -0.10    -0.01   0.03  -0.04
  51   1     0.01  -0.03   0.03     0.10   0.06  -0.04     0.03   0.03  -0.01
  52   1     0.04   0.00   0.04    -0.03   0.01  -0.03    -0.04  -0.01  -0.01
  53   1     0.04  -0.00   0.04     0.02   0.01  -0.02    -0.03  -0.01  -0.01
  54   1     0.03   0.03   0.01     0.01  -0.04   0.05    -0.02  -0.05   0.02
  55   1     0.00   0.02   0.02     0.08  -0.03   0.02     0.02  -0.04   0.01
  56   6     0.05   0.02  -0.04    -0.04  -0.05   0.06    -0.14   0.03  -0.02
  57   8     0.00  -0.02  -0.23    -0.01  -0.17  -0.04    -0.45   0.32  -0.17
  58   6     0.06   0.06   0.06    -0.02   0.03   0.01    -0.14   0.03  -0.00
  59   8     0.01   0.13   0.10     0.00   0.11  -0.22    -0.47   0.35   0.05
                     10                     11                     12
                        a                      a                      a 
 Frequencies --    76.5882                77.0870                87.8822
 Red. masses --    19.0857                10.9729                 9.2167
 Frc consts  --     0.0000                 0.0000                 0.0000
 IR Inten    --     2.1408                 0.0997                 0.8100
 Raman Activ --     0.0000                 0.0000                 0.0000
 Depolar     --     0.0000                 0.0000                 0.0000
 Atom AN      X      Y      Z        X      Y      Z        X      Y      Z
   1  28     0.05   0.41  -0.05     0.01   0.11   0.04    -0.00   0.00  -0.00
   2   7    -0.05  -0.06  -0.04    -0.01  -0.29   0.04     0.13   0.08   0.11
   3   6    -0.04   0.02   0.01     0.03  -0.17   0.03     0.13   0.01   0.02
   4   7    -0.03   0.07   0.05    -0.00  -0.08  -0.01     0.12   0.01  -0.01
   5   6    -0.03   0.02   0.01     0.06   0.06  -0.05     0.15   0.10   0.00
   6   6    -0.00  -0.07   0.05     0.02   0.13  -0.07     0.06   0.14   0.03
   7   6    -0.02  -0.11   0.02     0.12   0.04  -0.06     0.14  -0.03   0.01
   8   6    -0.01  -0.04   0.03     0.10  -0.13   0.00     0.12  -0.18   0.06
   9   6    -0.04   0.02   0.02     0.13  -0.17   0.01     0.15  -0.09  -0.03
  10   6     0.00   0.12   0.08    -0.05   0.06   0.09    -0.01  -0.18  -0.16
  11   6    -0.12  -0.04  -0.06    -0.20  -0.14   0.07     0.12  -0.01  -0.03
  12   6    -0.03  -0.18  -0.12    -0.06  -0.35   0.00     0.03   0.17   0.17
  13   1    -0.01   0.02   0.00     0.01   0.03  -0.02     0.05   0.05   0.01
  14   1    -0.02   0.00  -0.01     0.05   0.01  -0.01     0.07   0.02  -0.01
  15   1    -0.00  -0.03   0.01     0.01   0.08  -0.03     0.02   0.08   0.00
  16   1     0.01  -0.02   0.03    -0.03   0.03  -0.01    -0.03   0.03   0.03
  17   1    -0.02  -0.04  -0.01     0.07   0.02  -0.03     0.07  -0.01  -0.03
  18   1     0.00  -0.05   0.01     0.03   0.02  -0.02     0.03  -0.01   0.01
  19   1     0.01  -0.01   0.01    -0.00  -0.04   0.02     0.01  -0.05   0.06
  20   1    -0.01  -0.01   0.01     0.05  -0.06   0.00     0.05  -0.10   0.01
  21   1    -0.01   0.01   0.01     0.04  -0.07   0.01     0.04  -0.04  -0.01
  22   1    -0.02   0.00  -0.00     0.06  -0.04  -0.00     0.05  -0.02  -0.04
  23   1    -0.02   0.07   0.07    -0.04   0.06   0.07     0.02  -0.09  -0.14
  24   1     0.06   0.04   0.02     0.04   0.05   0.01    -0.09  -0.09  -0.02
  25   1    -0.08   0.00  -0.03    -0.10  -0.04   0.03     0.10   0.00  -0.02
  26   1    -0.03  -0.03  -0.03    -0.07  -0.04   0.02     0.02  -0.01  -0.01
  27   1    -0.03  -0.09  -0.07    -0.05  -0.15  -0.03     0.04   0.09   0.10
  28   1     0.04  -0.08  -0.02     0.04  -0.12   0.01    -0.07   0.07   0.04
  29   7    -0.05  -0.18   0.05    -0.02   0.24   0.01    -0.14  -0.05   0.11
  30   6    -0.01  -0.07  -0.01    -0.05   0.16  -0.02    -0.13  -0.02   0.01
  31   7    -0.02   0.02  -0.04    -0.00   0.09  -0.06    -0.12  -0.02  -0.02
  32   6    -0.00   0.05   0.00    -0.07  -0.05  -0.05    -0.15  -0.10   0.01
  33   6     0.01  -0.00  -0.01    -0.01  -0.16  -0.05    -0.07  -0.12   0.06
  34   6     0.04  -0.07   0.03    -0.11  -0.10  -0.06    -0.13   0.03  -0.01
  35   6     0.04  -0.09  -0.00    -0.09   0.09  -0.04    -0.12   0.18   0.01
  36   6     0.02  -0.07  -0.01    -0.13   0.16  -0.04    -0.14   0.08  -0.07
  37   6    -0.01   0.10  -0.15     0.04   0.01   0.05     0.03   0.14  -0.20
  38   6    -0.20  -0.09   0.02     0.11   0.12   0.08    -0.11   0.00  -0.05
  39   6    -0.06  -0.30   0.16     0.04   0.23   0.01    -0.05  -0.13   0.19
  40   1    -0.01   0.03  -0.00    -0.01  -0.03  -0.02    -0.05  -0.05   0.01
  41   1     0.01   0.01   0.02    -0.05  -0.01  -0.01    -0.07  -0.03  -0.01
  42   1     0.00   0.01   0.01    -0.01  -0.09  -0.01    -0.03  -0.08   0.02
  43   1    -0.00  -0.00  -0.02     0.04  -0.04  -0.01     0.02  -0.03   0.04
  44   1     0.01  -0.02   0.03    -0.07  -0.04  -0.02    -0.06   0.00  -0.03
  45   1     0.01  -0.03   0.01    -0.02  -0.05  -0.02    -0.03   0.02   0.01
  46   1     0.01  -0.03  -0.01     0.01   0.04   0.00    -0.02   0.06   0.05
  47   1     0.02  -0.04   0.00    -0.05   0.04  -0.02    -0.04   0.10  -0.02
  48   1     0.01  -0.02  -0.01    -0.04   0.07  -0.01    -0.04   0.04  -0.03
  49   1     0.01  -0.02   0.01    -0.06   0.04  -0.02    -0.04   0.01  -0.05
  50   1    -0.03   0.07  -0.11     0.03  -0.01   0.04    -0.01   0.05  -0.15
  51   1     0.07   0.05  -0.03    -0.01  -0.02   0.00     0.09   0.09  -0.03
  52   1    -0.12  -0.01  -0.00     0.05   0.04   0.03    -0.10  -0.01  -0.03
  53   1    -0.06  -0.04   0.01     0.05   0.03   0.03    -0.02   0.01  -0.02
  54   1    -0.06  -0.13   0.10     0.03   0.09  -0.01    -0.05  -0.07   0.11
  55   1     0.06  -0.12   0.04    -0.02   0.07  -0.00     0.06  -0.05   0.06
  56   6     0.08   0.16  -0.02     0.00   0.04  -0.01    -0.02   0.00  -0.01
  57   8     0.18  -0.06  -0.24     0.10  -0.08  -0.02    -0.06   0.02  -0.07
  58   6     0.07   0.16  -0.01     0.04   0.03  -0.00     0.02   0.00  -0.01
  59   8     0.18  -0.04   0.26    -0.00   0.06   0.08     0.07  -0.03  -0.06
                     13                     14                     15
                        a                      a                      a 
 Frequencies --    93.1108                97.1133                99.2989
 Red. masses --    10.8238                10.2673                13.4727
 Frc consts  --     0.0000                 0.0000                 0.0000
 IR Inten    --     0.2117                 0.9309                 0.1950
 Raman Activ --     0.0000                 0.0000                 0.0000
 Depolar     --     0.0000                 0.0000                 0.0000
 Atom AN      X      Y      Z        X      Y      Z        X      Y      Z
   1  28     0.03   0.13  -0.01    -0.00   0.00   0.11    -0.16   0.23  -0.03
   2   7    -0.01  -0.10   0.03    -0.05   0.01  -0.02     0.02   0.01   0.22
   3   6    -0.03  -0.16  -0.02    -0.02   0.13   0.03     0.03  -0.02   0.11
   4   7    -0.06  -0.25  -0.09     0.00   0.23   0.09    -0.02  -0.02   0.04
   5   6    -0.03  -0.13  -0.03    -0.01   0.14   0.01     0.03   0.07  -0.01
   6   6    -0.07   0.07  -0.13     0.03  -0.06   0.11    -0.00   0.13  -0.02
   7   6    -0.03   0.23  -0.06     0.02  -0.23   0.05     0.14  -0.02  -0.02
   8   6    -0.05   0.08  -0.08     0.05  -0.09   0.09     0.13  -0.17   0.11
   9   6     0.01  -0.11   0.00    -0.03   0.09   0.02     0.11  -0.09   0.07
  10   6     0.04   0.05   0.14    -0.10  -0.02  -0.10    -0.16  -0.15  -0.07
  11   6     0.05   0.06   0.27    -0.18  -0.12  -0.28    -0.08  -0.04   0.07
  12   6     0.04   0.00   0.07    -0.11  -0.15  -0.11    -0.10   0.05   0.24
  13   1    -0.01  -0.07  -0.01    -0.00   0.07   0.01     0.00   0.04  -0.01
  14   1     0.00  -0.03   0.03    -0.01   0.03  -0.04     0.04   0.02  -0.00
  15   1    -0.02   0.04  -0.03     0.01  -0.03   0.02     0.01   0.08  -0.03
  16   1    -0.04   0.01  -0.08     0.02  -0.01   0.08    -0.05   0.03   0.01
  17   1     0.03   0.08   0.03    -0.03  -0.08  -0.04     0.07  -0.00  -0.03
  18   1    -0.02   0.12  -0.04     0.02  -0.12   0.03     0.04  -0.01  -0.00
  19   1    -0.05   0.01  -0.05     0.05  -0.02   0.06     0.01  -0.05   0.08
  20   1    -0.00   0.04  -0.01     0.01  -0.05   0.02     0.07  -0.09   0.03
  21   1     0.01  -0.05   0.00    -0.01   0.04   0.01     0.04  -0.04   0.03
  22   1     0.03  -0.02   0.02    -0.04   0.02  -0.02     0.03  -0.02  -0.01
  23   1     0.01   0.01   0.10    -0.04   0.02  -0.07    -0.03  -0.06  -0.09
  24   1     0.03   0.08   0.00    -0.02  -0.06   0.00    -0.11  -0.07  -0.00
  25   1     0.00  -0.03   0.12    -0.07   0.02  -0.12     0.03  -0.01   0.01
  26   1     0.02   0.07   0.11    -0.06  -0.09  -0.11    -0.04  -0.01   0.02
  27   1     0.01  -0.01   0.02    -0.04  -0.06  -0.05    -0.02   0.03   0.11
  28   1     0.04   0.02  -0.00    -0.03  -0.08  -0.00    -0.08   0.02   0.07
  29   7    -0.00  -0.10  -0.01     0.05  -0.01  -0.01     0.04  -0.04  -0.21
  30   6    -0.03  -0.16   0.05     0.01  -0.11   0.06     0.05  -0.05  -0.10
  31   7    -0.07  -0.23   0.14    -0.01  -0.19   0.13    -0.02  -0.04  -0.03
  32   6    -0.03  -0.13   0.05     0.01  -0.13   0.04     0.04   0.07  -0.01
  33   6    -0.08   0.11   0.11    -0.03   0.07   0.08    -0.00   0.13  -0.01
  34   6    -0.03   0.25   0.01    -0.02   0.22  -0.01     0.14  -0.01   0.03
  35   6    -0.06   0.10   0.06    -0.06   0.11   0.06     0.14  -0.18  -0.06
  36   6     0.02  -0.11   0.02     0.02  -0.08   0.04     0.11  -0.11  -0.04
  37   6     0.06   0.02  -0.15     0.11  -0.00  -0.09    -0.16  -0.13   0.08
  38   6     0.09   0.00  -0.28     0.21   0.06  -0.26    -0.06  -0.06  -0.08
  39   6     0.06  -0.00  -0.08     0.12   0.13  -0.12    -0.07   0.01  -0.26
  40   1    -0.02  -0.06   0.03     0.00  -0.07   0.02     0.00   0.03  -0.00
  41   1     0.01  -0.04  -0.03     0.01  -0.04  -0.03     0.04   0.02  -0.00
  42   1    -0.02   0.05   0.02    -0.01   0.03   0.01     0.01   0.09   0.01
  43   1    -0.05   0.03   0.07    -0.03   0.02   0.07    -0.05   0.03  -0.02
  44   1     0.03   0.07  -0.04     0.03   0.06  -0.05     0.07   0.01   0.04
  45   1    -0.03   0.13   0.01    -0.03   0.12   0.00     0.04  -0.00   0.01
  46   1    -0.06   0.02   0.04    -0.05   0.03   0.05     0.02  -0.06  -0.06
  47   1    -0.00   0.05   0.00    -0.01   0.05   0.01     0.07  -0.10   0.00
  48   1     0.01  -0.05   0.01     0.01  -0.04   0.02     0.04  -0.05  -0.02
  49   1     0.04  -0.03  -0.01     0.04  -0.02  -0.01     0.03  -0.02   0.01
  50   1     0.03  -0.02  -0.10     0.05  -0.03  -0.05    -0.04  -0.05   0.10
  51   1     0.03   0.08  -0.02     0.02   0.06  -0.01    -0.12  -0.07   0.01
  52   1     0.02  -0.05  -0.11     0.08  -0.04  -0.10     0.03  -0.02  -0.01
  53   1     0.04   0.05  -0.12     0.08   0.06  -0.12    -0.04  -0.02  -0.03
  54   1     0.01  -0.01  -0.02     0.05   0.05  -0.05    -0.00   0.01  -0.12
  55   1     0.04   0.03  -0.00     0.03   0.08  -0.01    -0.07   0.01  -0.08
  56   6     0.01   0.07   0.01    -0.01  -0.01   0.03    -0.04   0.13   0.02
  57   8     0.05  -0.01  -0.07    -0.01  -0.03   0.01     0.05  -0.01  -0.02
  58   6     0.02   0.07  -0.02     0.00   0.01   0.03    -0.04   0.12  -0.05
  59   8     0.04   0.01   0.08    -0.00   0.03  -0.00     0.05  -0.00   0.03
                     16                     17                     18
                        a                      a                      a 
 Frequencies --   159.9326               165.3800               177.1315
 Red. masses --    20.7712                12.3008                25.4681
 Frc consts  --     0.0000                 0.0000                 0.0000
 IR Inten    --     0.1073                 0.9616                 0.2393
 Raman Activ --     0.0000                 0.0000                 0.0000
 Depolar     --     0.0000                 0.0000                 0.0000
 Atom AN      X      Y      Z        X      Y      Z        X      Y      Z
   1  28    -0.48   0.06  -0.03     0.02  -0.03  -0.27     0.54  -0.15   0.03
   2   7     0.06   0.13  -0.00    -0.05  -0.20  -0.02    -0.04   0.14   0.08
   3   6     0.04   0.06  -0.00    -0.02  -0.09  -0.01    -0.06   0.09   0.09
   4   7     0.00  -0.12  -0.10     0.03   0.15   0.12    -0.14  -0.11  -0.05
   5   6     0.01  -0.03  -0.01     0.03   0.06   0.00    -0.14  -0.07   0.01
   6   6    -0.07   0.15  -0.07     0.13  -0.14   0.08    -0.18   0.08  -0.05
   7   6     0.08   0.01  -0.06    -0.05   0.01   0.06     0.01  -0.04  -0.02
   8   6     0.07  -0.15   0.07    -0.04   0.15  -0.11     0.03  -0.08   0.18
   9   6     0.00   0.02  -0.01     0.03  -0.06  -0.01    -0.08   0.12   0.12
  10   6     0.18   0.05   0.04    -0.19  -0.08  -0.06    -0.04   0.02   0.05
  11   6     0.12  -0.02  -0.13    -0.11   0.01   0.14    -0.05   0.01  -0.01
  12   6     0.14  -0.06  -0.12    -0.14   0.05   0.12    -0.03  -0.00   0.01
  13   1     0.01  -0.03  -0.00     0.00   0.05  -0.00    -0.04  -0.05   0.00
  14   1     0.01  -0.00   0.03     0.01   0.01  -0.04    -0.04  -0.01   0.04
  15   1    -0.01   0.12  -0.03     0.02  -0.13   0.04    -0.04   0.09  -0.04
  16   1    -0.10   0.03  -0.02     0.12  -0.03   0.02    -0.12   0.01  -0.01
  17   1     0.06   0.01  -0.05    -0.05  -0.00   0.05     0.02  -0.01  -0.04
  18   1     0.02   0.00  -0.02    -0.02   0.00   0.02     0.03  -0.03  -0.01
  19   1    -0.00  -0.04   0.09     0.01   0.04  -0.11     0.01  -0.02   0.12
  20   1     0.05  -0.11   0.01    -0.04   0.12  -0.02     0.04  -0.08   0.04
  21   1    -0.00   0.03  -0.00     0.01  -0.05  -0.00    -0.02   0.07   0.04
  22   1    -0.03  -0.00  -0.02     0.05  -0.00   0.01    -0.07   0.02   0.03
  23   1     0.04   0.03   0.09    -0.04  -0.04  -0.12    -0.01   0.01   0.06
  24   1     0.12   0.05  -0.01    -0.15  -0.06   0.01     0.02   0.03   0.00
  25   1     0.00   0.02  -0.06     0.00  -0.03   0.07    -0.03   0.01  -0.01
  26   1     0.04  -0.04  -0.05    -0.04   0.04   0.06    -0.01  -0.01  -0.01
  27   1     0.03  -0.03  -0.09    -0.03   0.03   0.10    -0.02  -0.01  -0.02
  28   1     0.08  -0.06  -0.01    -0.09   0.06   0.00     0.01  -0.02   0.02
  29   7     0.06   0.13  -0.02     0.05   0.19  -0.05    -0.02   0.12  -0.10
  30   6     0.04   0.06  -0.01     0.02   0.09  -0.03    -0.04   0.07  -0.11
  31   7    -0.01  -0.10   0.12    -0.05  -0.12   0.15    -0.14  -0.09   0.06
  32   6     0.01  -0.03   0.02    -0.03  -0.06   0.02    -0.13  -0.07  -0.01
  33   6    -0.08   0.16   0.03    -0.13   0.15   0.03    -0.18   0.08   0.02
  34   6     0.07   0.02   0.07     0.04   0.01   0.06     0.01  -0.03   0.03
  35   6     0.07  -0.16  -0.03     0.05  -0.17  -0.07     0.04  -0.11  -0.14
  36   6     0.00   0.03   0.01    -0.03   0.06  -0.02    -0.06   0.09  -0.14
  37   6     0.18   0.05  -0.03     0.19   0.07  -0.06    -0.03   0.01  -0.06
  38   6     0.10   0.01   0.14     0.10   0.03   0.15    -0.05   0.02   0.00
  39   6     0.13  -0.04   0.14     0.12  -0.02   0.14    -0.03  -0.00  -0.00
  40   1     0.01  -0.03   0.01    -0.00  -0.05   0.01    -0.04  -0.05   0.00
  41   1     0.01  -0.01  -0.03    -0.00  -0.02  -0.04    -0.04  -0.02  -0.04
  42   1    -0.01   0.12   0.01    -0.03   0.13   0.01    -0.04   0.09   0.01
  43   1    -0.10   0.03   0.00    -0.12   0.03   0.00    -0.12   0.01  -0.00
  44   1     0.05   0.02   0.05     0.04   0.01   0.05     0.01  -0.00   0.04
  45   1     0.02   0.00   0.02     0.02  -0.00   0.02     0.02  -0.02   0.02
  46   1     0.01  -0.06  -0.08     0.00  -0.06  -0.10     0.02  -0.04  -0.11
  47   1     0.04  -0.11   0.02     0.04  -0.12   0.01     0.04  -0.09  -0.02
  48   1    -0.00   0.03  -0.00    -0.01   0.05  -0.01    -0.02   0.06  -0.06
  49   1    -0.03   0.00   0.02    -0.05   0.01   0.01    -0.06   0.01  -0.03
  50   1     0.05   0.01  -0.09     0.05   0.02  -0.12    -0.01  -0.00  -0.06
  51   1     0.13   0.05   0.01     0.14   0.07   0.01     0.02   0.03  -0.01
  52   1    -0.00   0.03   0.05    -0.01   0.04   0.06    -0.02   0.02   0.01
  53   1     0.04  -0.02   0.07     0.03  -0.02   0.07    -0.01  -0.01   0.01
  54   1     0.02  -0.01   0.10     0.02  -0.01   0.10    -0.02  -0.01   0.02
  55   1     0.08  -0.05   0.03     0.08  -0.06   0.02     0.01  -0.03  -0.01
  56   6    -0.11  -0.04  -0.03    -0.00   0.02  -0.09     0.11  -0.08  -0.11
  57   8    -0.05  -0.09   0.07     0.05   0.03   0.02     0.04   0.11   0.04
  58   6    -0.12  -0.04   0.03     0.01  -0.04  -0.08     0.09  -0.06   0.13
  59   8    -0.05  -0.10  -0.06    -0.05  -0.02   0.02     0.04   0.09  -0.06
                     19                     20                     21
                        a                      a                      a 
 Frequencies --   179.4969               224.5677               235.6434
 Red. masses --    25.1437                15.5653                 9.2322
 Frc consts  --     0.0000                 0.0000                 0.0000
 IR Inten    --     0.0230                 4.1512                 0.8506
 Raman Activ --     0.0000                 0.0000                 0.0000
 Depolar     --     0.0000                 0.0000                 0.0000
 Atom AN      X      Y      Z        X      Y      Z        X      Y      Z
   1  28    -0.01   0.06   0.55    -0.13   0.24  -0.03     0.00   0.00   0.06
   2   7     0.06  -0.05  -0.08     0.00   0.01   0.06    -0.02  -0.13  -0.16
   3   6     0.07  -0.05  -0.11    -0.00  -0.04   0.02    -0.00  -0.00  -0.05
   4   7     0.13   0.06  -0.02     0.01   0.02   0.04     0.01  -0.07  -0.06
   5   6     0.12   0.03  -0.02     0.00  -0.01   0.00     0.05   0.07   0.01
   6   6     0.12  -0.08   0.05     0.04  -0.05   0.00    -0.04   0.12   0.04
   7   6    -0.06   0.03   0.02    -0.01   0.06   0.03     0.02  -0.16  -0.04
   8   6    -0.07   0.07  -0.16    -0.03  -0.01  -0.04     0.07   0.07   0.02
   9   6     0.06  -0.09  -0.14     0.05  -0.11  -0.03    -0.08   0.18   0.06
  10   6     0.12   0.04  -0.03    -0.01   0.01   0.03    -0.03  -0.07  -0.07
  11   6     0.08  -0.01  -0.08    -0.05  -0.03  -0.04     0.07   0.03   0.18
  12   6     0.07  -0.01  -0.06    -0.03  -0.03   0.04     0.04  -0.01  -0.10
  13   1     0.04   0.03  -0.00    -0.00   0.00  -0.00     0.02   0.03   0.01
  14   1     0.04   0.00  -0.03     0.00  -0.01  -0.01     0.04   0.02   0.01
  15   1     0.03  -0.07   0.04     0.01  -0.05   0.01    -0.00   0.10  -0.00
  16   1     0.09  -0.01   0.01     0.05  -0.01  -0.01    -0.08   0.03   0.05
  17   1    -0.03   0.01   0.04     0.01   0.03   0.04    -0.04  -0.07  -0.10
  18   1    -0.04   0.02   0.01    -0.02   0.05  -0.00     0.04  -0.13   0.02
  19   1    -0.02   0.02  -0.10    -0.03  -0.01  -0.03     0.07   0.03   0.01
  20   1    -0.05   0.07  -0.04    -0.01   0.01  -0.01     0.01   0.03   0.01
  21   1     0.01  -0.06  -0.06     0.02  -0.07  -0.01    -0.03   0.12   0.02
  22   1     0.06  -0.01  -0.03     0.05  -0.02  -0.02    -0.08   0.03   0.05
  23   1     0.03   0.02  -0.00    -0.01   0.02   0.02     0.01  -0.05  -0.06
  24   1     0.05   0.01  -0.01     0.02   0.00   0.01    -0.08  -0.02  -0.02
  25   1     0.01   0.01  -0.03    -0.02   0.01  -0.03     0.03  -0.07   0.12
  26   1     0.02  -0.01  -0.03    -0.02  -0.03  -0.02     0.04   0.10   0.10
  27   1     0.02  -0.00  -0.01    -0.01  -0.01   0.01     0.01  -0.01  -0.03
  28   1     0.01  -0.00  -0.02    -0.01  -0.02   0.02     0.04   0.03  -0.06
  29   7    -0.05   0.04  -0.10     0.01  -0.00  -0.06     0.04   0.10  -0.19
  30   6    -0.06   0.03  -0.13    -0.00  -0.04  -0.01     0.01  -0.01  -0.05
  31   7    -0.14  -0.07  -0.02     0.01   0.01  -0.04    -0.01   0.06  -0.08
  32   6    -0.13  -0.04  -0.03     0.00  -0.01   0.00    -0.06  -0.07   0.02
  33   6    -0.14   0.09   0.02     0.04  -0.05   0.01     0.04  -0.11   0.07
  34   6     0.05  -0.03   0.03    -0.00   0.06  -0.04    -0.02   0.16  -0.08
  35   6     0.09  -0.11  -0.14    -0.03  -0.00   0.04    -0.08  -0.06   0.03
  36   6    -0.05   0.06  -0.17     0.04  -0.10   0.06     0.07  -0.17   0.11
  37   6    -0.12  -0.05  -0.04    -0.01   0.01  -0.04     0.04   0.06  -0.09
  38   6    -0.07  -0.00  -0.08    -0.05  -0.02   0.04    -0.09   0.01   0.19
  39   6    -0.07   0.00  -0.07    -0.02  -0.04  -0.04    -0.03  -0.01  -0.11
  40   1    -0.05  -0.04   0.00    -0.00   0.00   0.00    -0.02  -0.03   0.01
  41   1    -0.04  -0.01  -0.04    -0.00  -0.00   0.01    -0.04  -0.02   0.01
  42   1    -0.03   0.09   0.02     0.01  -0.05   0.00     0.00  -0.10   0.02
  43   1    -0.10   0.02  -0.01     0.05  -0.01   0.02     0.07  -0.02   0.06
  44   1     0.02  -0.00   0.04     0.02   0.02  -0.05     0.06   0.05  -0.11
  45   1     0.04  -0.02   0.02    -0.02   0.05  -0.01    -0.04   0.14  -0.01
  46   1     0.03  -0.04  -0.10    -0.03  -0.00   0.03    -0.08  -0.03   0.01
  47   1     0.05  -0.08  -0.02    -0.01   0.01   0.00    -0.01  -0.03   0.01
  48   1    -0.01   0.05  -0.07     0.02  -0.07   0.03     0.02  -0.12   0.05
  49   1    -0.06   0.00  -0.04     0.05  -0.01   0.03     0.08  -0.01   0.07
  50   1    -0.03  -0.03  -0.00    -0.01   0.01  -0.02    -0.01   0.04  -0.07
  51   1    -0.05  -0.01  -0.01     0.02  -0.00  -0.01     0.08   0.01  -0.02
  52   1    -0.01  -0.01  -0.03    -0.02   0.02   0.02    -0.05   0.10   0.11
  53   1    -0.02   0.01  -0.03    -0.02  -0.03   0.03    -0.05  -0.08   0.13
  54   1    -0.02  -0.00  -0.01    -0.01  -0.01  -0.01    -0.00   0.01  -0.03
  55   1    -0.01  -0.00  -0.02    -0.01  -0.02  -0.02    -0.04  -0.04  -0.06
  56   6    -0.13  -0.02   0.11     0.12  -0.31  -0.46    -0.23   0.01  -0.06
  57   8    -0.08  -0.15   0.05     0.04   0.20   0.14    -0.03  -0.17   0.13
  58   6     0.12   0.04   0.13     0.07  -0.20   0.53     0.23  -0.02  -0.04
  59   8     0.08   0.17   0.02     0.06   0.16  -0.18     0.02   0.19   0.10
                     22                     23                     24
                        a                      a                      a 
 Frequencies --   238.9839               255.7686               258.3084
 Red. masses --     9.7938                10.9515                 9.8739
 Frc consts  --     0.0000                 0.0000                 0.0000
 IR Inten    --     2.1222                 1.2113                 2.6773
 Raman Activ --     0.0000                 0.0000                 0.0000
 Depolar     --     0.0000                 0.0000                 0.0000
 Atom AN      X      Y      Z        X      Y      Z        X      Y      Z
   1  28    -0.14   0.11  -0.02    -0.01   0.01   0.09    -0.01   0.02  -0.00
   2   7    -0.04  -0.17  -0.17     0.08   0.03   0.09     0.13   0.11   0.19
   3   6    -0.02  -0.03  -0.05     0.09  -0.01  -0.02     0.13   0.00  -0.00
   4   7     0.01  -0.07  -0.05     0.02  -0.17  -0.20     0.02  -0.20  -0.25
   5   6     0.07   0.09   0.02     0.11   0.07  -0.09     0.11   0.05  -0.13
   6   6    -0.03   0.12   0.05    -0.09  -0.01   0.09    -0.12  -0.06   0.09
   7   6     0.03  -0.18  -0.04    -0.10  -0.16   0.04    -0.14  -0.15   0.05
   8   6     0.08   0.08   0.00    -0.03   0.16   0.00    -0.07   0.19   0.03
   9   6    -0.07   0.17   0.06     0.07   0.06   0.01     0.10   0.05   0.02
  10   6    -0.05  -0.10  -0.07    -0.02   0.02  -0.06    -0.01   0.07  -0.05
  11   6     0.06   0.02   0.23    -0.04  -0.01   0.06    -0.08  -0.01  -0.02
  12   6     0.04  -0.04  -0.11     0.01  -0.08   0.05    -0.01  -0.06   0.12
  13   1     0.02   0.04   0.01     0.06   0.10  -0.00     0.06   0.10  -0.01
  14   1     0.05   0.02   0.01     0.08  -0.00  -0.08     0.09  -0.01  -0.11
  15   1     0.00   0.10   0.00    -0.02   0.02   0.04    -0.03   0.01   0.04
  16   1    -0.07   0.03   0.06    -0.05  -0.00   0.06    -0.05  -0.02   0.05
  17   1    -0.05  -0.07  -0.10    -0.10  -0.07  -0.04    -0.12  -0.06  -0.02
  18   1     0.04  -0.14   0.03     0.01  -0.12   0.03     0.01  -0.11   0.02
  19   1     0.08   0.03  -0.01     0.04   0.05  -0.06     0.03   0.06  -0.06
  20   1     0.01   0.04   0.00    -0.05   0.11   0.01    -0.06   0.12   0.02
  21   1    -0.02   0.11   0.02     0.01  -0.00  -0.02     0.02  -0.02  -0.03
  22   1    -0.07   0.02   0.05     0.05   0.03   0.02     0.08   0.03   0.02
  23   1     0.01  -0.07  -0.07    -0.01   0.01   0.01    -0.02   0.05   0.04
  24   1    -0.10  -0.03  -0.02     0.00   0.04  -0.04     0.04   0.07  -0.04
  25   1     0.03  -0.09   0.15    -0.01  -0.02   0.03    -0.02   0.01  -0.02
  26   1     0.04   0.11   0.13    -0.02   0.02   0.03    -0.05  -0.02  -0.01
  27   1     0.00  -0.03  -0.04    -0.01  -0.04  -0.00    -0.01  -0.03   0.03
  28   1     0.05   0.02  -0.07     0.03  -0.04   0.02     0.00  -0.05   0.06
  29   7    -0.06  -0.12   0.20    -0.09  -0.01   0.09     0.15   0.06  -0.19
  30   6    -0.02  -0.02   0.05    -0.09   0.01  -0.03     0.13   0.00   0.01
  31   7     0.01  -0.06   0.06     0.01   0.13  -0.23    -0.01  -0.14   0.28
  32   6     0.07   0.08  -0.03    -0.10  -0.09  -0.08     0.10   0.07   0.13
  33   6    -0.02   0.10  -0.08     0.08   0.04   0.10    -0.11  -0.08  -0.08
  34   6     0.02  -0.16   0.07     0.10   0.17   0.01    -0.14  -0.15  -0.03
  35   6     0.08   0.07  -0.01     0.03  -0.16   0.04    -0.06   0.17  -0.08
  36   6    -0.05   0.14  -0.10    -0.07  -0.06   0.02     0.10   0.04  -0.02
  37   6    -0.06  -0.08   0.08     0.02  -0.03  -0.05    -0.01   0.08   0.03
  38   6     0.08  -0.03  -0.21     0.03   0.03   0.06    -0.08  -0.01   0.01
  39   6     0.03  -0.02   0.12    -0.01   0.08   0.03    -0.00  -0.08  -0.11
  40   1     0.02   0.04  -0.02    -0.06  -0.10   0.01     0.06   0.10  -0.01
  41   1     0.05   0.02  -0.01    -0.07  -0.02  -0.09     0.07   0.01   0.11
  42   1     0.00   0.09  -0.02     0.02  -0.02   0.04    -0.02  -0.00  -0.04
  43   1    -0.06   0.02  -0.07     0.04   0.02   0.06    -0.04  -0.03  -0.05
  44   1    -0.05  -0.05   0.10     0.11   0.06  -0.04    -0.12  -0.05   0.02
  45   1     0.04  -0.14   0.01    -0.02   0.12   0.00     0.01  -0.11   0.00
  46   1     0.07   0.03   0.01    -0.04  -0.07  -0.05     0.02   0.07   0.05
  47   1     0.01   0.04  -0.01     0.05  -0.11   0.04    -0.06   0.11  -0.05
  48   1    -0.02   0.10  -0.05    -0.01  -0.00  -0.02     0.01  -0.02   0.03
  49   1    -0.06   0.01  -0.06    -0.06  -0.02   0.02     0.08   0.02  -0.02
  50   1     0.00  -0.05   0.08     0.01  -0.01   0.01    -0.01   0.04  -0.05
  51   1    -0.10  -0.02   0.02     0.00  -0.05  -0.03     0.03   0.08   0.03
  52   1     0.04  -0.12  -0.12     0.01   0.03   0.03    -0.03   0.02   0.01
  53   1     0.05   0.08  -0.14     0.02  -0.01   0.04    -0.05  -0.02   0.01
  54   1    -0.00  -0.02   0.04     0.01   0.04  -0.01    -0.01  -0.04  -0.02
  55   1     0.04   0.03   0.06    -0.03   0.04   0.01     0.01  -0.06  -0.05
  56   6     0.06  -0.12  -0.13     0.29  -0.03   0.12    -0.06   0.02  -0.02
  57   8     0.01   0.06   0.03     0.03   0.19  -0.16    -0.00  -0.04   0.03
  58   6     0.06  -0.09   0.15    -0.30   0.05   0.08    -0.07   0.02   0.01
  59   8     0.01   0.06  -0.03    -0.02  -0.22  -0.12    -0.00  -0.05  -0.03
                     25                     26                     27
                        a                      a                      a 
 Frequencies --   268.9826               297.1464               297.4431
 Red. masses --    13.7567                 7.7266                 7.7017
 Frc consts  --     0.0000                 0.0000                 0.0000
 IR Inten    --     3.6045                 0.3400                 0.1387
 Raman Activ --     0.0000                 0.0000                 0.0000
 Depolar     --     0.0000                 0.0000                 0.0000
 Atom AN      X      Y      Z        X      Y      Z        X      Y      Z
   1  28     0.01  -0.02  -0.22     0.05  -0.00   0.03     0.03  -0.01  -0.04
   2   7     0.11   0.11   0.17    -0.02  -0.00   0.00    -0.06  -0.01   0.03
   3   6     0.10   0.02   0.04    -0.03  -0.05   0.01    -0.12  -0.18   0.03
   4   7    -0.00  -0.12  -0.15    -0.01  -0.02   0.05    -0.04  -0.07   0.20
   5   6     0.03  -0.02  -0.09     0.02   0.02   0.03     0.06   0.09   0.10
   6   6    -0.09  -0.08   0.02     0.01   0.07  -0.00     0.04   0.24  -0.01
   7   6    -0.09  -0.03   0.05     0.00  -0.05  -0.05     0.01  -0.19  -0.19
   8   6    -0.05   0.09   0.08     0.01   0.03  -0.08     0.05   0.10  -0.28
   9   6     0.08   0.01   0.03    -0.04  -0.03   0.01    -0.14  -0.12   0.06
  10   6    -0.00   0.09  -0.00     0.03  -0.01   0.07     0.10  -0.02   0.25
  11   6    -0.09  -0.00  -0.10     0.01  -0.02  -0.05     0.04  -0.08  -0.18
  12   6    -0.04   0.01   0.15    -0.02   0.04   0.03    -0.06   0.15   0.12
  13   1     0.03   0.04  -0.01    -0.00   0.00   0.00    -0.02   0.02   0.00
  14   1     0.03  -0.02  -0.07     0.02   0.01   0.02     0.06   0.03   0.07
  15   1    -0.03  -0.02   0.02     0.01   0.04  -0.01     0.02   0.15  -0.02
  16   1    -0.02  -0.02   0.01    -0.02   0.02   0.01    -0.08   0.06   0.04
  17   1    -0.05  -0.01   0.02    -0.02  -0.02  -0.05    -0.06  -0.08  -0.18
  18   1     0.00  -0.02   0.00     0.00  -0.05   0.01     0.02  -0.18   0.02
  19   1    -0.01   0.02   0.00     0.02   0.01  -0.06     0.07   0.03  -0.21
  20   1    -0.03   0.04   0.02    -0.00   0.05  -0.01    -0.00   0.18  -0.04
  21   1     0.01  -0.03  -0.01    -0.01   0.00   0.01    -0.03   0.01   0.05
  22   1     0.06   0.02   0.02    -0.02  -0.01   0.01    -0.06  -0.05   0.05
  23   1    -0.02   0.06   0.06     0.00   0.01   0.04     0.00   0.03   0.15
  24   1     0.06   0.06  -0.02     0.04  -0.00   0.02     0.14  -0.01   0.07
  25   1    -0.03   0.05  -0.08     0.00   0.02  -0.04     0.01   0.09  -0.15
  26   1    -0.05  -0.06  -0.06     0.01  -0.04  -0.03     0.02  -0.15  -0.13
  27   1    -0.01   0.01   0.06     0.01   0.03   0.03     0.03   0.12   0.10
  28   1    -0.04  -0.02   0.06    -0.04   0.02   0.01    -0.13   0.07   0.03
  29   7    -0.13  -0.07   0.18    -0.06  -0.02  -0.03     0.02   0.00   0.01
  30   6    -0.10  -0.01   0.03    -0.12  -0.18   0.00     0.03   0.05   0.00
  31   7     0.02   0.08  -0.17    -0.02  -0.11  -0.18     0.01   0.03   0.05
  32   6    -0.02  -0.00  -0.10     0.07   0.07  -0.11    -0.02  -0.02   0.03
  33   6     0.09   0.08   0.02     0.05   0.24  -0.04    -0.01  -0.06   0.01
  34   6     0.08   0.04   0.05    -0.01  -0.15   0.23     0.00   0.04  -0.06
  35   6     0.04  -0.07   0.10     0.02   0.16   0.26    -0.00  -0.04  -0.07
  36   6    -0.08  -0.00   0.03    -0.13  -0.13  -0.04     0.04   0.04   0.01
  37   6    -0.00  -0.09   0.02     0.13  -0.08  -0.22    -0.03   0.02   0.06
  38   6     0.10  -0.02  -0.09     0.02  -0.04   0.20    -0.00   0.01  -0.05
  39   6     0.03   0.02   0.15    -0.05   0.12  -0.16     0.01  -0.03   0.05
  40   1    -0.03  -0.04  -0.00    -0.02   0.01  -0.01     0.00  -0.01   0.00
  41   1    -0.02   0.00  -0.07     0.06   0.02  -0.07    -0.02  -0.00   0.02
  42   1     0.02   0.02   0.02     0.03   0.15  -0.01    -0.01  -0.04   0.00
  43   1     0.02   0.02   0.01    -0.07   0.05  -0.07     0.02  -0.01   0.02
  44   1     0.05   0.02   0.02    -0.08  -0.04   0.18     0.02   0.01  -0.05
  45   1    -0.00   0.02  -0.00     0.01  -0.18   0.02    -0.00   0.05  -0.01
  46   1     0.00  -0.02   0.01     0.05   0.08   0.21    -0.01  -0.02  -0.06
  47   1     0.03  -0.04   0.03    -0.00   0.18   0.00     0.00  -0.05  -0.00
  48   1    -0.01   0.03  -0.02    -0.02  -0.00  -0.05     0.01   0.00   0.01
  49   1    -0.06  -0.01   0.01    -0.06  -0.06  -0.04     0.01   0.02   0.01
  50   1     0.02  -0.04   0.07     0.02  -0.00  -0.15    -0.00   0.00   0.04
  51   1    -0.06  -0.06  -0.01     0.15  -0.02  -0.05    -0.04   0.01   0.01
  52   1     0.03  -0.07  -0.06    -0.01   0.12   0.13     0.00  -0.03  -0.04
  53   1     0.06   0.05  -0.07     0.01  -0.12   0.16    -0.00   0.03  -0.04
  54   1     0.00   0.01   0.06     0.04   0.09  -0.12    -0.01  -0.02   0.03
  55   1     0.04   0.03   0.06    -0.13   0.06  -0.05     0.03  -0.01   0.02
  56   6    -0.32   0.03  -0.16     0.00   0.00   0.00     0.01   0.01  -0.01
  57   8    -0.03  -0.19   0.17     0.00   0.00  -0.00     0.01   0.01  -0.00
  58   6     0.33  -0.06  -0.12     0.01   0.01   0.01     0.00  -0.00  -0.01
  59   8     0.02   0.22   0.13     0.01   0.01   0.00    -0.00  -0.00   0.00
                     28                     29                     30
                        a                      a                      a 
 Frequencies --   320.7340               348.0594               349.3153
 Red. masses --    20.6159                10.0349                11.0831
 Frc consts  --     0.0000                 0.0000                 0.0000
 IR Inten    --     4.7183                 3.0765                 5.1194
 Raman Activ --     0.0000                 0.0000                 0.0000
 Depolar     --     0.0000                 0.0000                 0.0000
 Atom AN      X      Y      Z        X      Y      Z        X      Y      Z
   1  28     0.38   0.19  -0.00     0.01   0.00  -0.06     0.09   0.10  -0.00
   2   7    -0.01   0.05   0.03     0.06   0.13   0.15    -0.07  -0.13  -0.16
   3   6    -0.02   0.01   0.01     0.02   0.03   0.13    -0.03  -0.03  -0.15
   4   7     0.01   0.05   0.07     0.03   0.13   0.17    -0.03  -0.15  -0.19
   5   6     0.03   0.04  -0.01     0.07   0.06  -0.14    -0.07  -0.06   0.17
   6   6     0.05   0.03  -0.03     0.01   0.03  -0.13     0.01  -0.03   0.16
   7   6    -0.02   0.00  -0.06    -0.17   0.01  -0.20     0.20  -0.01   0.23
   8   6    -0.03  -0.02  -0.06    -0.15   0.00  -0.01     0.17  -0.01   0.00
   9   6    -0.05  -0.04  -0.02    -0.12  -0.07   0.07     0.13   0.08  -0.09
  10   6    -0.01  -0.05  -0.01    -0.01  -0.08   0.01     0.02   0.08  -0.02
  11   6     0.04  -0.01   0.05     0.07  -0.01   0.06    -0.08   0.01  -0.06
  12   6     0.06  -0.07  -0.05     0.15  -0.12   0.00    -0.17   0.13  -0.01
  13   1    -0.00   0.02  -0.01    -0.01   0.06  -0.06     0.01  -0.06   0.07
  14   1     0.02   0.01  -0.01     0.05   0.01  -0.07    -0.05  -0.01   0.08
  15   1     0.01  -0.01   0.00     0.00  -0.01   0.01     0.00   0.01  -0.00
  16   1     0.03   0.01  -0.01     0.03   0.01  -0.05    -0.02  -0.01   0.06
  17   1    -0.01   0.00  -0.03    -0.07  -0.00  -0.08     0.08   0.01   0.10
  18   1    -0.02  -0.01  -0.01    -0.03  -0.03  -0.04     0.03   0.04   0.05
  19   1    -0.02  -0.01  -0.03    -0.07  -0.00  -0.00     0.08   0.00  -0.00
  20   1    -0.00   0.00  -0.01     0.00   0.00   0.01    -0.00  -0.00  -0.01
  21   1    -0.02  -0.01  -0.00    -0.04  -0.03   0.00     0.04   0.03  -0.00
  22   1    -0.02  -0.01  -0.01    -0.02  -0.01   0.01     0.02   0.01  -0.02
  23   1     0.01  -0.03  -0.04     0.02  -0.05  -0.06    -0.02   0.05   0.06
  24   1    -0.04  -0.03   0.01    -0.06  -0.06   0.03     0.06   0.07  -0.03
  25   1     0.01  -0.03   0.04     0.02  -0.02   0.04    -0.02   0.02  -0.03
  26   1     0.02   0.03   0.03     0.02   0.02   0.03    -0.02  -0.01  -0.03
  27   1     0.00  -0.04  -0.06     0.01  -0.08  -0.08    -0.01   0.09   0.08
  28   1     0.07  -0.04  -0.00     0.13  -0.09   0.04    -0.14   0.10  -0.04
  29   7    -0.01   0.04  -0.04    -0.09  -0.11   0.19    -0.08  -0.08   0.15
  30   6    -0.01   0.00  -0.02    -0.04   0.00   0.15    -0.04   0.00   0.13
  31   7     0.02   0.04  -0.07    -0.06  -0.10   0.22    -0.04  -0.09   0.19
  32   6     0.03   0.04   0.01    -0.06  -0.11  -0.16    -0.04  -0.08  -0.13
  33   6     0.05   0.03   0.02     0.01  -0.07  -0.15     0.02  -0.06  -0.12
  34   6    -0.03   0.02   0.06     0.22  -0.06  -0.21     0.18  -0.05  -0.17
  35   6    -0.04  -0.00   0.06     0.17  -0.01   0.01     0.14  -0.01   0.02
  36   6    -0.05  -0.04   0.02     0.13   0.10   0.08     0.10   0.08   0.07
  37   6    -0.01  -0.05   0.02     0.02   0.09  -0.01     0.01   0.07  -0.00
  38   6     0.04  -0.02  -0.05    -0.09   0.03   0.06    -0.07   0.02   0.04
  39   6     0.05  -0.05   0.07    -0.17   0.14  -0.04    -0.14   0.11  -0.03
  40   1    -0.00   0.02   0.01     0.02  -0.08  -0.05     0.02  -0.06  -0.04
  41   1     0.02   0.01   0.00    -0.04  -0.03  -0.09    -0.03  -0.02  -0.07
  42   1     0.01  -0.01   0.00    -0.00   0.01   0.00     0.00   0.01   0.00
  43   1     0.03   0.01   0.01    -0.02  -0.02  -0.06    -0.01  -0.02  -0.05
  44   1    -0.01   0.01   0.02     0.09  -0.02  -0.09     0.08  -0.01  -0.08
  45   1    -0.02  -0.00   0.01     0.04   0.03  -0.06     0.03   0.02  -0.05
  46   1    -0.02  -0.00   0.03     0.08   0.00   0.00     0.06   0.00   0.01
  47   1    -0.00   0.01   0.01    -0.00  -0.00   0.01    -0.00  -0.00   0.01
  48   1    -0.02  -0.01   0.00     0.05   0.04  -0.00     0.04   0.03   0.00
  49   1    -0.02  -0.01   0.01     0.02   0.02   0.02     0.01   0.02   0.02
  50   1     0.00  -0.02   0.04    -0.01   0.04  -0.08    -0.01   0.03  -0.06
  51   1    -0.04  -0.03  -0.00     0.06   0.08   0.02     0.05   0.07   0.02
  52   1     0.01  -0.04  -0.03    -0.03   0.04   0.03    -0.02   0.02   0.02
  53   1     0.02   0.02  -0.04    -0.03  -0.01   0.03    -0.02  -0.00   0.02
  54   1    -0.01  -0.03   0.07    -0.00   0.07  -0.12    -0.00   0.06  -0.08
  55   1     0.07  -0.04   0.02    -0.15   0.11   0.01    -0.12   0.08   0.01
  56   6    -0.43   0.09  -0.20    -0.04  -0.00  -0.01    -0.14   0.02  -0.07
  57   8    -0.03  -0.23   0.21    -0.01  -0.03   0.02    -0.02  -0.07   0.07
  58   6    -0.45   0.12   0.14     0.02   0.00  -0.00    -0.16   0.03   0.05
  59   8    -0.02  -0.27  -0.16     0.01   0.02   0.01    -0.02  -0.09  -0.05
                     31                     32                     33
                        a                      a                      a 
 Frequencies --   367.5400               368.6890               392.4522
 Red. masses --     8.6703                 8.6381                10.3000
 Frc consts  --     0.0000                 0.0000                 0.0000
 IR Inten    --     9.9521                 4.5994                 0.6479
 Raman Activ --     0.0000                 0.0000                 0.0000
 Depolar     --     0.0000                 0.0000                 0.0000
 Atom AN      X      Y      Z        X      Y      Z        X      Y      Z
   1  28     0.02   0.09  -0.01    -0.00   0.01   0.08     0.00  -0.01  -0.08
   2   7     0.07  -0.20  -0.10     0.07  -0.22  -0.12    -0.04   0.25   0.02
   3   6     0.09  -0.06  -0.02     0.10  -0.07  -0.03    -0.09   0.03  -0.01
   4   7     0.12  -0.03  -0.01     0.13  -0.03  -0.01    -0.07  -0.29  -0.06
   5   6     0.16  -0.01  -0.13     0.17  -0.01  -0.14     0.14   0.14   0.03
   6   6     0.07  -0.04  -0.08     0.07  -0.04  -0.09     0.25   0.00   0.08
   7   6    -0.09   0.08  -0.08    -0.10   0.08  -0.09     0.06   0.06   0.03
   8   6    -0.10  -0.05   0.16    -0.10  -0.05   0.17     0.01  -0.09  -0.07
   9   6    -0.17   0.12   0.12    -0.19   0.13   0.13    -0.13   0.01  -0.03
  10   6     0.04   0.04   0.04     0.04   0.05   0.04    -0.09  -0.07   0.08
  11   6    -0.03  -0.03  -0.04    -0.03  -0.03  -0.05    -0.07  -0.02   0.04
  12   6    -0.08   0.07   0.08    -0.09   0.08   0.08    -0.09   0.01  -0.09
  13   1     0.04   0.03  -0.04     0.04   0.04  -0.04     0.03   0.11   0.00
  14   1     0.06  -0.01  -0.06     0.06  -0.01  -0.06     0.12   0.02  -0.02
  15   1     0.02  -0.05   0.03     0.02  -0.06   0.03     0.05  -0.11   0.03
  16   1     0.07  -0.01  -0.05     0.07  -0.01  -0.05     0.18   0.02   0.03
  17   1    -0.02   0.02  -0.01    -0.02   0.03  -0.02     0.05   0.02   0.03
  18   1    -0.02   0.03  -0.03    -0.02   0.03  -0.04    -0.03   0.05   0.02
  19   1    -0.06  -0.01   0.15    -0.07  -0.01   0.16    -0.01  -0.03   0.01
  20   1     0.03  -0.11   0.03     0.03  -0.12   0.04     0.01  -0.05  -0.02
  21   1    -0.07   0.14   0.00    -0.08   0.15   0.00    -0.03   0.04   0.02
  22   1    -0.12  -0.00   0.09    -0.14  -0.00   0.10    -0.08  -0.01  -0.03
  23   1    -0.01   0.04   0.03    -0.01   0.05   0.04    -0.03  -0.01   0.05
  24   1     0.05   0.02   0.00     0.05   0.03   0.00    -0.01   0.02   0.00
  25   1    -0.01   0.02  -0.04    -0.01   0.03  -0.05    -0.04  -0.02   0.03
  26   1    -0.01  -0.04  -0.03    -0.01  -0.05  -0.04     0.02   0.01   0.02
  27   1     0.01   0.07   0.12     0.01   0.07   0.14    -0.04  -0.02  -0.07
  28   1    -0.12   0.08  -0.02    -0.13   0.09  -0.02     0.02  -0.03   0.00
  29   7     0.06  -0.19   0.16    -0.05   0.17  -0.15     0.04  -0.25   0.09
  30   6     0.10  -0.06   0.05    -0.08   0.05  -0.05     0.10  -0.03   0.01
  31   7     0.12  -0.03   0.04    -0.11   0.03  -0.03     0.08   0.28  -0.12
  32   6     0.16   0.03   0.16    -0.14  -0.02  -0.14    -0.15  -0.14   0.05
  33   6     0.07  -0.02   0.10    -0.06   0.02  -0.09    -0.27   0.01   0.05
  34   6    -0.11   0.10   0.06     0.10  -0.09  -0.06    -0.07  -0.05   0.04
  35   6    -0.09  -0.09  -0.17     0.08   0.08   0.15     0.00   0.07  -0.10
  36   6    -0.17   0.10  -0.17     0.16  -0.09   0.16     0.14  -0.02  -0.02
  37   6     0.04   0.04  -0.05    -0.04  -0.03   0.04     0.09   0.09   0.07
  38   6    -0.04  -0.02   0.05     0.04   0.02  -0.04     0.06   0.03   0.04
  39   6    -0.08   0.06  -0.10     0.07  -0.06   0.10     0.10  -0.03  -0.08
  40   1     0.04   0.05   0.04    -0.04  -0.04  -0.03    -0.03  -0.11   0.02
  41   1     0.06   0.00   0.07    -0.05  -0.00  -0.06    -0.12  -0.03  -0.02
  42   1     0.02  -0.06  -0.02    -0.02   0.06   0.02    -0.06   0.12  -0.00
  43   1     0.07   0.01   0.06    -0.06  -0.01  -0.06    -0.19  -0.01   0.02
  44   1    -0.02   0.03   0.01     0.02  -0.03  -0.01    -0.05  -0.02   0.04
  45   1    -0.02   0.04   0.03     0.02  -0.04  -0.02     0.03  -0.04   0.04
  46   1    -0.05  -0.05  -0.16     0.05   0.04   0.15     0.01   0.03   0.00
  47   1     0.04  -0.13  -0.01    -0.03   0.12   0.00    -0.01   0.04  -0.04
  48   1    -0.08   0.15  -0.04     0.07  -0.13   0.04     0.03  -0.04   0.03
  49   1    -0.13  -0.03  -0.11     0.12   0.03   0.10     0.08   0.00  -0.03
  50   1    -0.01   0.04  -0.05     0.01  -0.03   0.04     0.03   0.03   0.05
  51   1     0.05   0.03  -0.00    -0.05  -0.02   0.00     0.01  -0.01   0.01
  52   1    -0.01   0.04   0.04     0.01  -0.03  -0.03     0.04   0.03   0.03
  53   1    -0.02  -0.04   0.04     0.02   0.03  -0.04    -0.03  -0.01   0.02
  54   1     0.03   0.04  -0.15    -0.02  -0.04   0.13     0.05   0.00  -0.07
  55   1    -0.14   0.09  -0.01     0.12  -0.08   0.01    -0.02   0.03  -0.01
  56   6    -0.05  -0.02  -0.04     0.07  -0.03  -0.01    -0.02  -0.02   0.02
  57   8    -0.01  -0.03   0.04     0.02   0.05  -0.02    -0.03  -0.03   0.02
  58   6    -0.05  -0.01   0.04    -0.07   0.02  -0.02     0.02   0.02   0.02
  59   8    -0.00  -0.04  -0.03    -0.02  -0.05  -0.01     0.02   0.04   0.01
                     34                     35                     36
                        a                      a                      a 
 Frequencies --   393.2909               427.1301               428.2320
 Red. masses --    10.2504                17.1721                 8.5437
 Frc consts  --     0.0000                 0.0000                 0.0000
 IR Inten    --     1.9232                12.0309                 5.2895
 Raman Activ --     0.0000                 0.0000                 0.0000
 Depolar     --     0.0000                 0.0000                 0.0000
 Atom AN      X      Y      Z        X      Y      Z        X      Y      Z
   1  28     0.01   0.08  -0.01    -0.02   0.04   0.35     0.03   0.01  -0.03
   2   7     0.05  -0.26  -0.03     0.08   0.10   0.07    -0.12  -0.10  -0.10
   3   6     0.10  -0.04   0.01     0.07   0.02  -0.04    -0.13  -0.04   0.08
   4   7     0.07   0.30   0.06     0.08   0.02  -0.02    -0.17  -0.06   0.04
   5   6    -0.15  -0.15  -0.03     0.01  -0.08   0.10    -0.03   0.15  -0.15
   6   6    -0.26  -0.01  -0.08     0.03   0.04   0.02    -0.05  -0.06  -0.02
   7   6    -0.06  -0.06  -0.02    -0.00  -0.01  -0.02     0.02   0.01   0.04
   8   6    -0.00   0.09   0.08    -0.02  -0.03  -0.10     0.04   0.05   0.14
   9   6     0.14  -0.02   0.03    -0.07   0.01  -0.05     0.12  -0.04   0.09
  10   6     0.09   0.07  -0.08    -0.03   0.02  -0.02     0.01  -0.05   0.05
  11   6     0.06   0.02  -0.04    -0.08  -0.01   0.04     0.12   0.04  -0.07
  12   6     0.08  -0.01   0.09    -0.04  -0.04   0.03     0.09   0.08  -0.07
  13   1    -0.03  -0.11  -0.00     0.01  -0.10   0.03    -0.02   0.18  -0.05
  14   1    -0.13  -0.02   0.02    -0.05  -0.00   0.09     0.09   0.00  -0.15
  15   1    -0.06   0.12  -0.03     0.01   0.03   0.01    -0.02  -0.06  -0.02
  16   1    -0.19  -0.02  -0.03    -0.01   0.01  -0.00     0.03  -0.01   0.01
  17   1    -0.04  -0.03  -0.03     0.01  -0.00  -0.01    -0.00   0.00   0.03
  18   1     0.03  -0.05  -0.02    -0.02  -0.00   0.01     0.04   0.01  -0.02
  19   1     0.01   0.03  -0.01    -0.00  -0.01  -0.04     0.00   0.01   0.05
  20   1    -0.02   0.05   0.02    -0.01   0.01  -0.02     0.02   0.00   0.04
  21   1     0.03  -0.04  -0.02    -0.03   0.07  -0.02     0.05  -0.12   0.05
  22   1     0.08   0.01   0.03    -0.08  -0.02   0.01     0.13   0.03  -0.02
  23   1     0.03   0.01  -0.06    -0.01   0.01  -0.03     0.02  -0.04   0.05
  24   1     0.01  -0.01  -0.00    -0.03   0.01  -0.01     0.02  -0.01   0.02
  25   1     0.04   0.02  -0.03    -0.03  -0.01   0.02     0.04   0.04  -0.04
  26   1    -0.03  -0.02  -0.02    -0.03   0.01   0.02     0.05  -0.02  -0.04
  27   1     0.04   0.02   0.08    -0.03  -0.04  -0.00     0.04   0.04  -0.02
  28   1    -0.02   0.04  -0.00     0.01  -0.04   0.03     0.02   0.05  -0.04
  29   7     0.04  -0.24   0.08    -0.09  -0.09   0.08    -0.17  -0.09   0.14
  30   6     0.09  -0.04   0.01    -0.07  -0.03  -0.04    -0.16  -0.07  -0.11
  31   7     0.08   0.26  -0.11    -0.08  -0.02  -0.02    -0.21  -0.09  -0.05
  32   6    -0.15  -0.13   0.04    -0.02   0.10   0.08    -0.06   0.22   0.14
  33   6    -0.26   0.01   0.05    -0.04  -0.03   0.02    -0.06  -0.07   0.03
  34   6    -0.06  -0.05   0.03     0.00   0.00  -0.02     0.03   0.01  -0.05
  35   6     0.00   0.07  -0.09     0.03   0.01  -0.10     0.07   0.02  -0.18
  36   6     0.14  -0.02  -0.01     0.08  -0.02  -0.04     0.15  -0.07  -0.09
  37   6     0.08   0.09   0.07     0.04  -0.03  -0.02     0.02  -0.08  -0.05
  38   6     0.05   0.03   0.04     0.08   0.01   0.04     0.15   0.08   0.09
  39   6     0.09  -0.03  -0.08     0.04   0.05   0.02     0.10   0.11   0.08
  40   1    -0.03  -0.11   0.02    -0.01   0.10   0.00    -0.03   0.24   0.00
  41   1    -0.12  -0.03  -0.03     0.04   0.02   0.09     0.09   0.05   0.20
  42   1    -0.05   0.12  -0.00    -0.01  -0.03   0.01    -0.03  -0.07   0.03
  43   1    -0.19  -0.01   0.01     0.01  -0.01   0.00     0.04  -0.01  -0.01
  44   1    -0.05  -0.02   0.03    -0.01  -0.00  -0.01     0.00  -0.00  -0.03
  45   1     0.03  -0.04   0.03     0.02   0.01   0.01     0.04   0.02   0.02
  46   1     0.01   0.03   0.00     0.00  -0.00  -0.04     0.01   0.00  -0.06
  47   1    -0.01   0.04  -0.03     0.01  -0.01  -0.02     0.03  -0.01  -0.05
  48   1     0.03  -0.04   0.03     0.03  -0.07  -0.00     0.07  -0.16  -0.02
  49   1     0.08   0.00  -0.03     0.08   0.02   0.01     0.16   0.04   0.03
  50   1     0.03   0.03   0.05     0.02  -0.02  -0.02     0.03  -0.06  -0.05
  51   1     0.01  -0.01   0.01     0.03  -0.01  -0.00     0.03  -0.02  -0.01
  52   1     0.03   0.03   0.03     0.03   0.02   0.02     0.05   0.06   0.05
  53   1    -0.03  -0.01   0.02     0.02  -0.01   0.02     0.05  -0.01   0.06
  54   1     0.04   0.00  -0.07     0.03   0.03  -0.01     0.04   0.05   0.02
  55   1    -0.02   0.04  -0.01    -0.01   0.04   0.02     0.02   0.07   0.04
  56   6    -0.05  -0.01  -0.04     0.02  -0.10  -0.50    -0.02   0.00   0.03
  57   8    -0.01  -0.03   0.03     0.10   0.19   0.05    -0.02  -0.03   0.01
  58   6    -0.06  -0.00   0.03     0.03  -0.01  -0.50    -0.03   0.02   0.04
  59   8    -0.01  -0.03  -0.02    -0.11  -0.18   0.08     0.01   0.00  -0.01
                     37                     38                     39
                        a                      a                      a 
 Frequencies --   428.9051               467.7405               468.5680
 Red. masses --    12.1926                 8.5432                 8.9321
 Frc consts  --     0.0000                 0.0000                 0.0000
 IR Inten    --     2.9300                 2.1941                 0.9089
 Raman Activ --     0.0000                 0.0000                 0.0000
 Depolar     --     0.0000                 0.0000                 0.0000
 Atom AN      X      Y      Z        X      Y      Z        X      Y      Z
   1  28    -0.01   0.03   0.24     0.00  -0.03   0.01     0.00  -0.01  -0.03
   2   7    -0.14  -0.09  -0.11    -0.14   0.03  -0.02     0.09  -0.03   0.01
   3   6    -0.16  -0.04   0.10    -0.03   0.31   0.01     0.01  -0.21  -0.00
   4   7    -0.20  -0.08   0.04     0.07   0.01   0.08    -0.05   0.00  -0.05
   5   6    -0.04   0.17  -0.17     0.06  -0.06  -0.00    -0.04   0.04  -0.01
   6   6    -0.05  -0.07  -0.02     0.01   0.02  -0.05    -0.02  -0.02   0.03
   7   6     0.02   0.02   0.05    -0.08  -0.01  -0.10     0.06   0.01   0.07
   8   6     0.04   0.05   0.15    -0.05   0.05   0.03     0.04  -0.03  -0.01
   9   6     0.13  -0.05   0.10     0.14   0.13  -0.18    -0.08  -0.09   0.13
  10   6     0.01  -0.06   0.07     0.17  -0.09   0.10    -0.11   0.06  -0.07
  11   6     0.14   0.06  -0.08     0.02  -0.30   0.15    -0.00   0.20  -0.10
  12   6     0.10   0.09  -0.09    -0.21  -0.01  -0.01     0.15   0.01   0.00
  13   1    -0.03   0.21  -0.05    -0.00  -0.00  -0.02     0.00   0.01   0.01
  14   1     0.10   0.01  -0.17     0.04  -0.02  -0.01    -0.02   0.01  -0.01
  15   1    -0.02  -0.07  -0.02     0.01   0.02   0.01    -0.01  -0.01  -0.01
  16   1     0.04  -0.01   0.02    -0.01   0.00  -0.03    -0.00  -0.00   0.02
  17   1    -0.00   0.00   0.03    -0.07  -0.02  -0.08     0.05   0.01   0.05
  18   1     0.04   0.02  -0.02     0.01  -0.06  -0.01    -0.00   0.05   0.01
  19   1     0.00   0.01   0.05    -0.03   0.02   0.09     0.02  -0.01  -0.06
  20   1     0.02   0.00   0.04    -0.01  -0.07  -0.01     0.00   0.05   0.01
  21   1     0.06  -0.14   0.05     0.05  -0.13  -0.06    -0.03   0.08   0.04
  22   1     0.15   0.03  -0.02     0.16   0.10  -0.15    -0.10  -0.06   0.10
  23   1     0.02  -0.05   0.06     0.00   0.05   0.08     0.00  -0.03  -0.05
  24   1     0.02  -0.02   0.02     0.13  -0.02   0.02    -0.09   0.01  -0.01
  25   1     0.05   0.04  -0.05     0.00  -0.15   0.11     0.00   0.10  -0.07
  26   1     0.06  -0.02  -0.04     0.05   0.00   0.09    -0.03   0.00  -0.06
  27   1     0.04   0.04  -0.03    -0.00   0.09   0.03     0.00  -0.06  -0.02
  28   1     0.03   0.05  -0.04    -0.16   0.01  -0.00     0.10  -0.01  -0.00
  29   7     0.11   0.04  -0.08    -0.10   0.02   0.00    -0.13   0.04  -0.01
  30   6     0.11   0.04   0.07    -0.02   0.21  -0.06    -0.02   0.30  -0.08
  31   7     0.14   0.07   0.03     0.05  -0.01  -0.06     0.07  -0.02  -0.07
  32   6     0.04  -0.15  -0.09     0.04  -0.04   0.02     0.06  -0.06   0.01
  33   6     0.03   0.05  -0.02    -0.00   0.02   0.04     0.01   0.03   0.05
  34   6    -0.02  -0.00   0.03    -0.06   0.01   0.06    -0.09   0.01   0.09
  35   6    -0.04  -0.01   0.11    -0.03   0.03  -0.03    -0.05   0.04  -0.04
  36   6    -0.10   0.05   0.05     0.09   0.12   0.11     0.11   0.17   0.16
  37   6    -0.00   0.06   0.04     0.13  -0.08  -0.05     0.17  -0.11  -0.06
  38   6    -0.10  -0.06  -0.06     0.03  -0.23  -0.05     0.02  -0.32  -0.07
  39   6    -0.07  -0.08  -0.06    -0.15  -0.00  -0.01    -0.21  -0.01  -0.01
  40   1     0.02  -0.16  -0.00    -0.00   0.01   0.01    -0.00  -0.01   0.01
  41   1    -0.06  -0.03  -0.13     0.03  -0.01   0.02     0.03  -0.02   0.01
  42   1     0.02   0.05  -0.02     0.00   0.01  -0.01     0.01   0.01  -0.02
  43   1    -0.03   0.01   0.01    -0.01   0.00   0.02    -0.01   0.01   0.03
  44   1    -0.00   0.00   0.02    -0.05  -0.00   0.05    -0.07  -0.00   0.07
  45   1    -0.03  -0.01  -0.01     0.01  -0.04   0.02     0.00  -0.06   0.02
  46   1    -0.01  -0.00   0.04    -0.01  -0.00  -0.07    -0.02  -0.00  -0.09
  47   1    -0.02   0.00   0.03    -0.01  -0.05   0.02    -0.01  -0.07   0.03
  48   1    -0.04   0.11   0.01     0.03  -0.08   0.06     0.04  -0.10   0.09
  49   1    -0.10  -0.03  -0.02     0.11   0.09   0.10     0.13   0.12   0.14
  50   1    -0.02   0.04   0.03     0.01   0.02  -0.06     0.01   0.03  -0.08
  51   1    -0.01   0.02   0.01     0.10  -0.01  -0.01     0.13  -0.02  -0.01
  52   1    -0.03  -0.04  -0.03     0.01  -0.12  -0.05     0.01  -0.17  -0.07
  53   1    -0.04   0.00  -0.04     0.04  -0.01  -0.06     0.05  -0.02  -0.08
  54   1    -0.02  -0.03  -0.02     0.00   0.06  -0.04    -0.00   0.07  -0.05
  55   1    -0.02  -0.04  -0.03    -0.11   0.01  -0.01    -0.15   0.01  -0.02
  56   6    -0.01   0.03  -0.28    -0.02   0.06  -0.01     0.04  -0.16   0.03
  57   8     0.09   0.11   0.01     0.03   0.02  -0.02    -0.08  -0.02   0.04
  58   6     0.03  -0.09  -0.26     0.00  -0.01   0.01    -0.05   0.17  -0.01
  59   8    -0.09  -0.11   0.02    -0.00   0.01  -0.01     0.08   0.04   0.04
                     40                     41                     42
                        a                      a                      a 
 Frequencies --   481.1825               499.3858               500.1779
 Red. masses --    12.6886                 9.7986                 9.4853
 Frc consts  --     0.0000                 0.0000                 0.0000
 IR Inten    --     0.2402                 1.9101                 0.4268
 Raman Activ --     0.0000                 0.0000                 0.0000
 Depolar     --     0.0000                 0.0000                 0.0000
 Atom AN      X      Y      Z        X      Y      Z        X      Y      Z
   1  28    -0.00   0.01   0.09    -0.01  -0.07   0.00    -0.00  -0.01   0.03
   2   7     0.05   0.01   0.03    -0.13  -0.15   0.16     0.10   0.11  -0.13
   3   6     0.03  -0.07  -0.01    -0.04  -0.01  -0.02     0.03   0.00   0.01
   4   7    -0.00  -0.01  -0.05    -0.16   0.05  -0.22     0.13  -0.03   0.17
   5   6    -0.01   0.01   0.03    -0.21   0.22   0.09     0.17  -0.18  -0.07
   6   6     0.04   0.01   0.02     0.12   0.06   0.02    -0.10  -0.05  -0.02
   7   6     0.01   0.00   0.00    -0.04   0.01  -0.06     0.03  -0.01   0.05
   8   6     0.00  -0.02  -0.01    -0.03  -0.02  -0.00     0.03   0.01   0.00
   9   6    -0.06  -0.02   0.04    -0.04   0.03  -0.01     0.03  -0.02   0.01
  10   6    -0.04   0.03  -0.05     0.19   0.05  -0.20    -0.15  -0.04   0.16
  11   6    -0.01   0.08  -0.03     0.14  -0.11   0.02    -0.11   0.09  -0.02
  12   6     0.06  -0.01   0.01     0.11  -0.09   0.21    -0.08   0.07  -0.16
  13   1     0.00  -0.03   0.01    -0.05  -0.02   0.03     0.04   0.02  -0.02
  14   1    -0.02   0.01   0.04    -0.08   0.08   0.09     0.07  -0.06  -0.07
  15   1     0.01  -0.02   0.00     0.00  -0.17  -0.02    -0.00   0.14   0.01
  16   1     0.03   0.01   0.01     0.21   0.04   0.03    -0.17  -0.04  -0.03
  17   1     0.01   0.00   0.00    -0.04  -0.01  -0.07     0.03   0.01   0.06
  18   1    -0.01   0.00   0.01    -0.01  -0.06   0.02     0.00   0.05  -0.02
  19   1     0.00  -0.01  -0.01    -0.03  -0.01   0.04     0.02   0.00  -0.03
  20   1     0.00   0.01   0.00     0.01  -0.05  -0.01    -0.01   0.04   0.01
  21   1    -0.02   0.05   0.01    -0.02   0.05  -0.01     0.01  -0.03   0.01
  22   1    -0.06  -0.03   0.04    -0.05  -0.01   0.02     0.03   0.01  -0.01
  23   1     0.00  -0.01  -0.02     0.05   0.02   0.02    -0.04  -0.01  -0.01
  24   1    -0.03   0.01  -0.01     0.11   0.03  -0.07    -0.09  -0.03   0.05
  25   1    -0.00   0.04  -0.03     0.09  -0.04   0.01    -0.07   0.04  -0.01
  26   1    -0.02   0.00  -0.02    -0.06  -0.01   0.03     0.05   0.01  -0.02
  27   1    -0.00  -0.03  -0.01     0.06   0.01   0.04    -0.04  -0.01  -0.03
  28   1     0.04  -0.01   0.01     0.01  -0.02   0.06    -0.01   0.02  -0.05
  29   7    -0.04  -0.01   0.02    -0.09  -0.15  -0.11    -0.11  -0.18  -0.14
  30   6    -0.02   0.05  -0.02    -0.04  -0.00   0.01    -0.05  -0.00   0.01
  31   7     0.01   0.00  -0.05    -0.14   0.07   0.14    -0.19   0.09   0.18
  32   6     0.01  -0.00   0.03    -0.15   0.15  -0.12    -0.20   0.20  -0.16
  33   6    -0.03  -0.01   0.01     0.10   0.04  -0.02     0.12   0.05  -0.02
  34   6    -0.01  -0.00   0.00    -0.03   0.02   0.04    -0.05   0.02   0.05
  35   6     0.00   0.01  -0.02    -0.03  -0.01   0.00    -0.03  -0.02   0.00
  36   6     0.05   0.02   0.04    -0.03   0.03   0.00    -0.03   0.03   0.00
  37   6     0.04  -0.04  -0.03     0.13   0.08   0.16     0.17   0.10   0.20
  38   6     0.01  -0.08  -0.01     0.11  -0.08   0.02     0.14  -0.11   0.02
  39   6    -0.05   0.01   0.00     0.10  -0.10  -0.13     0.12  -0.13  -0.17
  40   1    -0.00   0.03   0.00    -0.04  -0.02  -0.02    -0.05  -0.03  -0.03
  41   1     0.02  -0.00   0.04    -0.06   0.05  -0.09    -0.07   0.06  -0.12
  42   1    -0.01   0.02  -0.00    -0.00  -0.13   0.04    -0.00  -0.16   0.05
  43   1    -0.03  -0.00   0.00     0.17   0.03  -0.02     0.22   0.04  -0.02
  44   1    -0.01  -0.00  -0.00    -0.04   0.00   0.05    -0.05   0.01   0.07
  45   1     0.01   0.00   0.01    -0.00  -0.05  -0.01    -0.01  -0.06  -0.01
  46   1    -0.00   0.00  -0.01    -0.02  -0.01  -0.03    -0.02  -0.01  -0.04
  47   1    -0.00  -0.01   0.00     0.01  -0.04   0.01     0.01  -0.05   0.02
  48   1     0.02  -0.04   0.02    -0.01   0.04  -0.00    -0.02   0.05  -0.00
  49   1     0.05   0.03   0.04    -0.04  -0.01  -0.02    -0.04  -0.01  -0.02
  50   1     0.00   0.00  -0.02     0.04   0.01  -0.01     0.05   0.01  -0.02
  51   1     0.03  -0.01  -0.01     0.08   0.04   0.05     0.10   0.05   0.07
  52   1     0.00  -0.04  -0.01     0.07  -0.03   0.01     0.09  -0.05   0.01
  53   1     0.02  -0.01  -0.02    -0.04  -0.01  -0.02    -0.05  -0.02  -0.03
  54   1     0.00   0.02  -0.01     0.05   0.00  -0.03     0.06   0.01  -0.03
  55   1    -0.04   0.01   0.00     0.01  -0.03  -0.04     0.01  -0.04  -0.05
  56   6    -0.13   0.57   0.04     0.01   0.04  -0.05    -0.01   0.05   0.03
  57   8     0.25   0.05  -0.16     0.04   0.04  -0.01     0.02  -0.00  -0.02
  58   6     0.12  -0.55   0.18    -0.00   0.06   0.03     0.00  -0.03   0.05
  59   8    -0.24  -0.09  -0.17     0.04   0.04   0.01    -0.00   0.01  -0.02
                     43                     44                     45
                        a                      a                      a 
 Frequencies --   521.0945               522.0852               537.1093
 Red. masses --     7.3991                 6.5325                25.4644
 Frc consts  --     0.0000                 0.0000                 0.0000
 IR Inten    --     3.6268                 1.4834                 4.2280
 Raman Activ --     0.0000                 0.0000                 0.0000
 Depolar     --     0.0000                 0.0000                 0.0000
 Atom AN      X      Y      Z        X      Y      Z        X      Y      Z
   1  28     0.03   0.12  -0.01    -0.00  -0.01  -0.02    -0.18  -0.49   0.04
   2   7     0.06  -0.02  -0.07    -0.07   0.02   0.10     0.02  -0.02  -0.05
   3   6     0.03  -0.01   0.03    -0.03   0.02  -0.03     0.01  -0.04  -0.02
   4   7    -0.01  -0.11  -0.03    -0.00   0.12   0.02     0.03  -0.02   0.02
   5   6    -0.02  -0.04   0.16     0.01   0.06  -0.17     0.04  -0.04   0.02
   6   6     0.15   0.09  -0.02    -0.16  -0.10   0.02     0.02   0.01  -0.01
   7   6    -0.10  -0.01  -0.14     0.11   0.01   0.15    -0.02  -0.00  -0.02
   8   6    -0.07   0.07   0.13     0.07  -0.08  -0.15    -0.01   0.02   0.04
[...]
   6   6     0.05  -0.07   0.01     0.08  -0.10   0.01    -0.04   0.03  -0.00
   7   6     0.04  -0.00   0.05     0.06  -0.00   0.08    -0.04   0.02  -0.06
   8   6     0.01   0.06  -0.07     0.02   0.10  -0.12     0.01   0.08  -0.10
   9   6    -0.00   0.01  -0.00    -0.00   0.02  -0.00    -0.00   0.02  -0.00
  10   6     0.00   0.00  -0.00     0.00   0.00  -0.00    -0.00  -0.00  -0.01
  11   6     0.00   0.00   0.00     0.00   0.00   0.00    -0.01  -0.04  -0.09
  12   6    -0.00   0.00   0.00    -0.00   0.00  -0.00     0.00  -0.01  -0.01
  13   1    -0.04  -0.01   0.06    -0.07  -0.01   0.10     0.01   0.00  -0.02
  14   1     0.01   0.06  -0.02     0.02   0.09  -0.03    -0.00  -0.02   0.01
  15   1    -0.14   0.02   0.01    -0.22   0.03   0.01     0.13  -0.02  -0.01
  16   1    -0.03   0.22  -0.02    -0.05   0.34  -0.03     0.01  -0.09   0.01
  17   1    -0.02   0.14  -0.01    -0.03   0.22  -0.01     0.03  -0.21   0.01
  18   1    -0.13  -0.14  -0.19    -0.19  -0.20  -0.28     0.13   0.14   0.19
  19   1     0.03  -0.14   0.01     0.05  -0.22   0.01     0.04  -0.18   0.01
  20   1    -0.07  -0.08   0.27    -0.11  -0.12   0.42    -0.10  -0.10   0.36
  21   1    -0.02   0.00   0.01    -0.02   0.00   0.01    -0.01   0.00   0.01
  22   1     0.02  -0.05  -0.01     0.03  -0.07  -0.01     0.02  -0.06  -0.01
  23   1    -0.00  -0.00  -0.00    -0.00  -0.00  -0.00     0.00   0.00   0.00
  24   1     0.00   0.00   0.00     0.00   0.00   0.00     0.00   0.01   0.02
  25   1    -0.00  -0.00  -0.00    -0.00  -0.01  -0.01     0.03   0.20   0.23
  26   1    -0.00   0.00  -0.00    -0.00   0.00  -0.01     0.01  -0.06   0.08
  27   1     0.00  -0.00  -0.00     0.00  -0.00  -0.00    -0.02   0.01   0.00
  28   1    -0.00   0.00   0.00    -0.00   0.00   0.00     0.00   0.01   0.01
  29   7     0.00  -0.00   0.00    -0.00   0.00  -0.00    -0.00   0.00  -0.00
  30   6    -0.00  -0.00  -0.00     0.00   0.00   0.00     0.00  -0.00   0.00
  31   7     0.00  -0.00   0.00    -0.00   0.00  -0.00    -0.00   0.00  -0.00
  32   6     0.01  -0.02   0.02    -0.01   0.01  -0.02    -0.00   0.01  -0.00
  33   6     0.07  -0.10   0.02    -0.05   0.07  -0.01    -0.04   0.03  -0.01
  34   6     0.07  -0.02  -0.07    -0.05   0.01   0.04    -0.05   0.04   0.05
  35   6     0.01   0.12   0.09    -0.01  -0.08  -0.06     0.00   0.11   0.09
  36   6    -0.00   0.02  -0.00     0.00  -0.01   0.00    -0.00   0.02  -0.00
  37   6     0.00   0.00   0.00    -0.00  -0.00  -0.00    -0.00  -0.00   0.01
  38   6     0.00  -0.00  -0.00    -0.00   0.00   0.00    -0.02  -0.02   0.09
  39   6    -0.00   0.00  -0.00     0.00  -0.00   0.00     0.00  -0.01   0.01
  40   1    -0.06  -0.03  -0.09     0.04   0.02   0.06     0.01   0.01   0.02
  41   1     0.01   0.09   0.01    -0.01  -0.06  -0.01    -0.00  -0.03  -0.00
  42   1    -0.20   0.02  -0.04     0.13  -0.01   0.02     0.14  -0.02   0.03
  43   1    -0.05   0.34  -0.05     0.03  -0.22   0.03     0.01  -0.10   0.01
  44   1    -0.03   0.22  -0.04     0.02  -0.14   0.03     0.03  -0.23   0.04
  45   1    -0.23  -0.14   0.31     0.14   0.09  -0.19     0.16   0.10  -0.22
  46   1     0.05  -0.21   0.04    -0.03   0.14  -0.03     0.04  -0.20   0.04
  47   1    -0.07  -0.21  -0.39     0.05   0.13   0.25    -0.07  -0.19  -0.36
  48   1    -0.02  -0.00  -0.01     0.01   0.00   0.01    -0.01  -0.00  -0.01
  49   1     0.03  -0.07   0.03    -0.02   0.04  -0.02     0.02  -0.06   0.02
  50   1    -0.00  -0.00   0.00     0.00   0.00  -0.00     0.00   0.00  -0.00
  51   1     0.00   0.00  -0.00    -0.00  -0.00   0.00     0.00   0.01  -0.02
  52   1    -0.00  -0.00   0.01     0.00   0.00  -0.01     0.05   0.14  -0.26
  53   1    -0.00   0.00   0.00     0.00  -0.00  -0.00     0.02  -0.07  -0.06
  54   1     0.00  -0.00   0.00    -0.00   0.00  -0.00    -0.02   0.01  -0.01
  55   1     0.00   0.00  -0.00    -0.00  -0.00   0.00     0.00   0.01  -0.01
  56   6     0.00  -0.00   0.00     0.00   0.00  -0.00     0.00   0.00  -0.00
  57   8    -0.00   0.00  -0.00    -0.00  -0.00   0.00    -0.00  -0.00   0.00
  58   6     0.00   0.00   0.00    -0.00  -0.00  -0.00     0.00   0.00   0.00
  59   8    -0.00  -0.00  -0.00     0.00   0.00   0.00    -0.00  -0.00  -0.00
                    163                    164                    165
                        a                      a                      a 
 Frequencies --  2985.6380              2986.4760              2986.7563
 Red. masses --     1.8251                 1.6887                 1.6367
 Frc consts  --     0.0000                 0.0000                 0.0000
 IR Inten    --   121.7264                69.1158                 3.8269
 Raman Activ --     0.0000                 0.0000                 0.0000
 Depolar     --     0.0000                 0.0000                 0.0000
 Atom AN      X      Y      Z        X      Y      Z        X      Y      Z
   1  28     0.00   0.00  -0.00     0.00  -0.00   0.00    -0.00  -0.00  -0.00
   2   7     0.00  -0.00  -0.00    -0.00  -0.00   0.00    -0.00  -0.00   0.00
   3   6    -0.00   0.00  -0.00     0.00   0.00  -0.00     0.00   0.00   0.00
   4   7     0.00  -0.00  -0.00    -0.00  -0.00   0.00    -0.00  -0.00   0.00
   5   6     0.00  -0.01  -0.00    -0.01  -0.01   0.01    -0.01  -0.01   0.02
   6   6     0.04  -0.04   0.00    -0.06  -0.06   0.01    -0.08  -0.08   0.01
   7   6     0.05  -0.03   0.06    -0.03  -0.01  -0.04    -0.04  -0.02  -0.05
   8   6    -0.02  -0.09   0.11     0.00   0.03  -0.03    -0.00   0.03  -0.02
   9   6     0.00  -0.02   0.00    -0.00   0.00   0.00    -0.00   0.00   0.00
  10   6     0.00   0.00   0.01     0.00   0.01   0.01    -0.00   0.00   0.01
  11   6     0.01   0.04   0.08     0.01   0.06   0.11     0.01   0.05   0.10
  12   6    -0.00   0.01   0.01    -0.00   0.01   0.01    -0.00   0.01   0.01
  13   1    -0.01  -0.00   0.02     0.03   0.00  -0.05     0.04   0.00  -0.06
  14   1     0.01   0.03  -0.01     0.00   0.02  -0.00     0.00   0.03  -0.01
  15   1    -0.12   0.02   0.01     0.29  -0.06  -0.01     0.35  -0.08  -0.01
  16   1    -0.02   0.14  -0.01    -0.06   0.28  -0.03    -0.07   0.36  -0.04
  17   1    -0.04   0.24  -0.01     0.01  -0.06   0.00     0.01  -0.06   0.00
  18   1    -0.14  -0.15  -0.20     0.10   0.10   0.15     0.12   0.12   0.17
  19   1    -0.04   0.20  -0.01     0.02  -0.08   0.01     0.02  -0.09   0.01
  20   1     0.11   0.11  -0.40    -0.02  -0.02   0.09    -0.02  -0.02   0.07
  21   1     0.01  -0.00  -0.01     0.00   0.00  -0.00     0.00   0.00  -0.00
  22   1    -0.03   0.06   0.01     0.00  -0.01  -0.00     0.00  -0.00  -0.00
  23   1    -0.01  -0.00  -0.00    -0.00  -0.00  -0.00     0.00   0.00   0.00
  24   1    -0.00  -0.01  -0.01    -0.00  -0.01  -0.03    -0.00  -0.01  -0.03
  25   1    -0.03  -0.18  -0.21    -0.04  -0.27  -0.31    -0.04  -0.25  -0.29
  26   1    -0.01   0.05  -0.07    -0.01   0.07  -0.09    -0.01   0.06  -0.08
  27   1     0.01  -0.01   0.00     0.02  -0.01  -0.00     0.01  -0.01  -0.00
  28   1    -0.00  -0.01  -0.01    -0.00  -0.02  -0.02    -0.00  -0.02  -0.02
  29   7     0.00   0.00  -0.00    -0.00  -0.00  -0.00     0.00   0.00   0.00
  30   6     0.00  -0.00   0.00     0.00   0.00   0.00    -0.00  -0.00   0.00
  31   7    -0.00   0.00  -0.00    -0.00  -0.00  -0.00     0.00   0.00   0.00
  32   6    -0.00   0.01  -0.00    -0.01  -0.01  -0.01     0.01   0.02   0.02
  33   6    -0.04   0.04  -0.01    -0.07  -0.08  -0.00     0.07   0.09   0.00
  34   6    -0.05   0.04   0.05    -0.04  -0.01   0.04     0.04   0.01  -0.04
  35   6     0.01   0.11   0.09    -0.00   0.03   0.01     0.00  -0.02  -0.00
  36   6    -0.00   0.02  -0.00    -0.00   0.00  -0.00     0.00   0.00   0.00
  37   6    -0.00  -0.00   0.01     0.00   0.00  -0.01     0.00  -0.00   0.01
  38   6    -0.02  -0.02   0.08     0.02   0.03  -0.12    -0.02  -0.02   0.08
  39   6     0.00  -0.00   0.01    -0.00   0.01  -0.01     0.00  -0.01   0.01
  40   1     0.01   0.01   0.02     0.03   0.01   0.06    -0.04  -0.02  -0.06
  41   1    -0.00  -0.03  -0.00     0.00   0.03  -0.00    -0.00  -0.04   0.00
  42   1     0.11  -0.01   0.02     0.34  -0.07   0.06    -0.34   0.07  -0.06
  43   1     0.02  -0.14   0.02    -0.07   0.36  -0.05     0.07  -0.39   0.06
  44   1     0.03  -0.22   0.04     0.00  -0.06   0.01    -0.00   0.04  -0.01
  45   1     0.15   0.10  -0.20     0.13   0.08  -0.17    -0.12  -0.07   0.16
  46   1     0.04  -0.19   0.04     0.02  -0.09   0.01    -0.01   0.07  -0.01
  47   1    -0.07  -0.19  -0.36    -0.01  -0.03  -0.06     0.00   0.01   0.02
  48   1    -0.01  -0.00  -0.01     0.00   0.00   0.00    -0.00  -0.00  -0.00
  49   1     0.02  -0.06   0.02     0.00  -0.00   0.00     0.00  -0.00   0.00
  50   1     0.00   0.00  -0.00    -0.00   0.00  -0.00    -0.00  -0.00   0.00
  51   1     0.00   0.00  -0.01    -0.00  -0.01   0.03     0.00   0.01  -0.02
  52   1     0.04   0.12  -0.22    -0.07  -0.19   0.35     0.05   0.14  -0.25
  53   1     0.01  -0.06  -0.05    -0.02   0.09   0.07     0.01  -0.06  -0.05
  54   1    -0.01   0.00  -0.00     0.02  -0.01   0.00    -0.01   0.01  -0.00
  55   1     0.00   0.01  -0.01    -0.00  -0.01   0.02     0.00   0.01  -0.02
  56   6    -0.00  -0.00   0.00     0.00   0.00  -0.00    -0.00  -0.00   0.00
  57   8     0.00   0.00  -0.00    -0.00  -0.00   0.00     0.00   0.00  -0.00
  58   6     0.00   0.00   0.00     0.00   0.00   0.00     0.00   0.00   0.00
  59   8    -0.00  -0.00  -0.00    -0.00  -0.00  -0.00    -0.00  -0.00  -0.00
                    166                    167                    168
                        a                      a                      a 
 Frequencies --  2987.1861              2987.2531              2999.8615
 Red. masses --     1.7824                 1.7198                 1.5850
 Frc consts  --     0.0000                 0.0000                 0.0000
 IR Inten    --    13.0921                78.3236                34.1841
 Raman Activ --     0.0000                 0.0000                 0.0000
 Depolar     --     0.0000                 0.0000                 0.0000
 Atom AN      X      Y      Z        X      Y      Z        X      Y      Z
   1  28    -0.00  -0.00   0.00     0.00   0.00   0.00     0.00  -0.00   0.00
   2   7     0.00   0.00  -0.00     0.00   0.00  -0.00    -0.00   0.00  -0.00
   3   6    -0.00  -0.00  -0.00    -0.00  -0.00   0.00     0.00  -0.00  -0.00
   4   7     0.00   0.00   0.00     0.00   0.00   0.00     0.00   0.00   0.00
   5   6    -0.00  -0.01   0.00    -0.01  -0.02   0.01     0.00  -0.00  -0.00
   6   6    -0.02  -0.06   0.01    -0.05  -0.13   0.02     0.00  -0.01   0.00
   7   6     0.00  -0.02   0.00    -0.00  -0.04  -0.00    -0.00  -0.01  -0.00
   8   6    -0.01  -0.01   0.03    -0.02  -0.03   0.07     0.02  -0.04  -0.02
   9   6     0.00  -0.01   0.00     0.00  -0.01   0.00     0.00  -0.01  -0.00
  10   6    -0.00  -0.01  -0.01    -0.01  -0.01  -0.01    -0.00  -0.00  -0.00
  11   6    -0.01  -0.05  -0.09    -0.02  -0.06  -0.13     0.00  -0.01   0.00
  12   6     0.00  -0.01  -0.01     0.00  -0.01  -0.01     0.00  -0.00  -0.00
  13   1     0.01  -0.00  -0.01     0.02  -0.00  -0.03    -0.00  -0.00   0.00
  14   1     0.00   0.03  -0.01     0.01   0.07  -0.02     0.00   0.01  -0.00
  15   1     0.10  -0.03  -0.00     0.26  -0.07  -0.01    -0.00  -0.00   0.00
  16   1    -0.04   0.22  -0.02    -0.10   0.53  -0.05    -0.00   0.02  -0.00
  17   1    -0.01   0.06  -0.01    -0.02   0.12  -0.01    -0.00   0.02  -0.00
  18   1     0.00   0.00   0.01     0.02   0.02   0.03     0.01   0.01   0.02
  19   1    -0.00   0.00   0.00    -0.00   0.01   0.01    -0.04   0.18  -0.02
  20   1     0.03   0.04  -0.12     0.07   0.08  -0.27    -0.02  -0.03   0.09
  21   1     0.01  -0.00  -0.00     0.01  -0.00  -0.01    -0.00  -0.00   0.00
  22   1    -0.01   0.02   0.00    -0.02   0.05   0.01    -0.01   0.03   0.00
  23   1     0.01   0.01   0.00     0.02   0.01  -0.00     0.00   0.00   0.00
  24   1     0.00   0.01   0.02     0.00   0.02   0.03    -0.00   0.00   0.00
  25   1     0.03   0.22   0.25     0.05   0.31   0.36     0.00   0.01   0.01
  26   1     0.01  -0.06   0.08     0.01  -0.09   0.12    -0.00   0.01  -0.02
  27   1    -0.01   0.00  -0.00    -0.02   0.01   0.00    -0.00   0.00   0.00
  28   1     0.00   0.02   0.02     0.00   0.02   0.02     0.00   0.00   0.00
  29   7    -0.00  -0.00  -0.00     0.00   0.00  -0.00     0.00  -0.00   0.00
  30   6     0.00   0.00  -0.00     0.00  -0.00   0.00    -0.00   0.00  -0.00
  31   7    -0.00  -0.00   0.00     0.00  -0.00  -0.00    -0.00  -0.00   0.00
  32   6     0.01   0.02   0.00    -0.00  -0.01  -0.00    -0.00   0.01  -0.00
  33   6     0.03   0.11  -0.01    -0.02  -0.07   0.00    -0.00   0.03  -0.00
  34   6    -0.00   0.03  -0.00     0.00  -0.02   0.00     0.01   0.04  -0.03
  35   6     0.01   0.04   0.06    -0.01  -0.03  -0.04    -0.06   0.16  -0.12
  36   6    -0.00   0.01  -0.00     0.00  -0.01   0.00    -0.01   0.03  -0.02
  37   6     0.01   0.01  -0.02    -0.00  -0.00   0.01     0.00   0.00  -0.00
  38   6     0.04   0.04  -0.18    -0.02  -0.02   0.08     0.00  -0.01  -0.02
  39   6    -0.00   0.01  -0.01     0.00  -0.00   0.01     0.00   0.00  -0.00
  40   1    -0.01  -0.00  -0.02     0.01   0.00   0.02     0.01   0.00   0.01
  41   1    -0.01  -0.07  -0.00     0.00   0.04   0.00    -0.00  -0.03  -0.00
  42   1    -0.18   0.05  -0.03     0.12  -0.03   0.02    -0.00   0.00  -0.00
  43   1     0.07  -0.42   0.06    -0.05   0.27  -0.04     0.02  -0.11   0.01
  44   1     0.02  -0.11   0.02    -0.01   0.07  -0.01     0.02  -0.09   0.01
  45   1    -0.00   0.00   0.00     0.01   0.00  -0.01    -0.07  -0.03   0.09
  46   1     0.01  -0.01   0.01    -0.00   0.01  -0.01     0.15  -0.80   0.09
  47   1    -0.04  -0.13  -0.24     0.03   0.08   0.15     0.06   0.22   0.34
  48   1    -0.01  -0.00  -0.01     0.01   0.00   0.00     0.01   0.01   0.01
  49   1     0.01  -0.04   0.02    -0.01   0.03  -0.01     0.04  -0.11   0.04
  50   1    -0.02  -0.01   0.00     0.01   0.01  -0.00    -0.00  -0.00  -0.00
  51   1    -0.00  -0.01   0.04     0.00   0.01  -0.02    -0.00  -0.00   0.00
  52   1    -0.11  -0.29   0.52     0.04   0.12  -0.22    -0.00  -0.01   0.02
  53   1    -0.03   0.13   0.11     0.01  -0.06  -0.05    -0.01   0.04   0.04
  54   1     0.02  -0.01   0.00    -0.01   0.01  -0.00    -0.00   0.00  -0.00
  55   1    -0.01  -0.02   0.04     0.00   0.01  -0.01    -0.00  -0.00   0.00
  56   6     0.00   0.00  -0.00    -0.00  -0.00   0.00     0.00   0.00  -0.00
  57   8    -0.00  -0.00   0.00     0.00   0.00  -0.00    -0.00  -0.00   0.00
  58   6    -0.00  -0.00  -0.00    -0.00  -0.00  -0.00     0.00   0.00   0.00
  59   8     0.00   0.00  -0.00     0.00   0.00   0.00    -0.00  -0.00  -0.00
                    169                    170                    171
                        a                      a                      a 
 Frequencies --  2999.9098              3001.3397              3001.5674
 Red. masses --     1.5875                 1.6025                 1.6068
 Frc consts  --     0.0000                 0.0000                 0.0000
 IR Inten    --    33.3545                62.3056                48.9725
 Raman Activ --     0.0000                 0.0000                 0.0000
 Depolar     --     0.0000                 0.0000                 0.0000
 Atom AN      X      Y      Z        X      Y      Z        X      Y      Z
   1  28     0.00  -0.00   0.00     0.00   0.00   0.00     0.00   0.00  -0.00
   2   7     0.00  -0.00   0.00     0.00  -0.00   0.00     0.00   0.00   0.00
   3   6    -0.00   0.00   0.00    -0.00   0.00   0.00     0.00   0.00   0.00
   4   7    -0.00  -0.00  -0.00     0.00  -0.00  -0.00    -0.00  -0.00   0.00
   5   6    -0.00   0.01   0.00    -0.00   0.00   0.00     0.00   0.00  -0.00
   6   6    -0.00   0.03  -0.00    -0.00   0.00  -0.00     0.00   0.00  -0.00
   7   6     0.01   0.05   0.02     0.00   0.00   0.00     0.00   0.00   0.00
   8   6    -0.07   0.18   0.08    -0.00   0.01   0.00    -0.00   0.01   0.01
   9   6    -0.02   0.03   0.01    -0.00   0.00   0.00    -0.00   0.00   0.00
  10   6     0.00   0.00   0.00     0.00   0.00  -0.00     0.01   0.01  -0.01
  11   6     0.00  -0.01   0.02    -0.00   0.03  -0.02    -0.02   0.17  -0.16
  12   6     0.00   0.00   0.00    -0.00   0.00  -0.00    -0.02   0.01  -0.01
  13   1     0.01   0.00  -0.01     0.00   0.00  -0.00    -0.00  -0.00   0.00
  14   1    -0.00  -0.03   0.01    -0.00  -0.00   0.00    -0.00  -0.01   0.00
  15   1    -0.00   0.00  -0.00     0.00   0.00  -0.00    -0.01   0.00   0.00
  16   1     0.02  -0.11   0.01     0.00  -0.01   0.00     0.00  -0.01   0.00
  17   1     0.02  -0.09   0.01     0.00  -0.01   0.00     0.00   0.00   0.00
  18   1    -0.06  -0.05  -0.08    -0.00  -0.00  -0.00    -0.01  -0.01  -0.01
  19   1     0.16  -0.80   0.10     0.01  -0.05   0.01     0.01  -0.04   0.01
  20   1     0.09   0.14  -0.37     0.01   0.01  -0.02     0.01   0.01  -0.02
  21   1     0.02   0.01  -0.01     0.00   0.00  -0.00    -0.00   0.00   0.00
  22   1     0.05  -0.11  -0.02     0.00  -0.01  -0.00     0.00  -0.01  -0.00
  23   1    -0.00  -0.00   0.00    -0.00  -0.00  -0.00    -0.03  -0.02  -0.00
  24   1    -0.00  -0.00  -0.00     0.00   0.00   0.00     0.00   0.01   0.01
  25   1    -0.00  -0.02  -0.01    -0.01  -0.03  -0.04    -0.03  -0.16  -0.24
  26   1    -0.01   0.04  -0.06     0.01  -0.06   0.11     0.09  -0.44   0.79
  27   1    -0.00   0.00   0.00     0.01  -0.01  -0.00     0.06  -0.04  -0.00
  28   1    -0.00  -0.00  -0.00    -0.00  -0.00  -0.00    -0.00   0.01   0.01
  29   7     0.00  -0.00   0.00     0.00  -0.00  -0.00     0.00  -0.00   0.00
  30   6    -0.00   0.00  -0.00     0.00   0.00  -0.00    -0.00   0.00  -0.00
  31   7     0.00  -0.00   0.00    -0.00  -0.00  -0.00     0.00   0.00   0.00
  32   6     0.00   0.00  -0.00     0.00   0.00   0.00    -0.00   0.00  -0.00
  33   6    -0.00   0.01  -0.00     0.00   0.00   0.00    -0.00   0.00  -0.00
  34   6     0.00   0.01  -0.01     0.00   0.00  -0.00    -0.00   0.00  -0.00
  35   6    -0.01   0.04  -0.03    -0.00   0.01  -0.01    -0.00   0.01  -0.00
  36   6    -0.00   0.01  -0.00    -0.00   0.00  -0.00    -0.00   0.00  -0.00
  37   6    -0.00  -0.00  -0.00     0.01   0.01   0.01    -0.00  -0.00  -0.00
  38   6     0.00  -0.01  -0.01    -0.03   0.20   0.11     0.00  -0.03  -0.02
  39   6     0.00  -0.00  -0.00    -0.02   0.01  -0.00     0.00  -0.00  -0.00
  40   1     0.00   0.00   0.00    -0.00  -0.00  -0.00     0.00   0.00   0.00
  41   1    -0.00  -0.01  -0.00    -0.00  -0.01  -0.00    -0.00  -0.00  -0.00
  42   1    -0.00   0.00  -0.00    -0.01   0.00  -0.00     0.00  -0.00   0.00
  43   1     0.00  -0.03   0.00     0.00  -0.01   0.00     0.00  -0.00   0.00
  44   1     0.00  -0.02   0.00     0.00  -0.00  -0.00     0.00  -0.01   0.00
  45   1    -0.01  -0.01   0.02    -0.01  -0.01   0.01    -0.00   0.00   0.00
  46   1     0.03  -0.18   0.02     0.01  -0.05   0.01     0.01  -0.03   0.00
  47   1     0.01   0.05   0.07     0.00   0.02   0.03     0.00   0.01   0.01
  48   1     0.01   0.00   0.00    -0.00   0.00  -0.00     0.00   0.00   0.00
  49   1     0.01  -0.02   0.01     0.00  -0.01   0.00     0.00  -0.01   0.00
  50   1     0.00   0.00  -0.00    -0.03  -0.02   0.00     0.00   0.00  -0.00
  51   1    -0.00  -0.00   0.00     0.00   0.00  -0.01    -0.00  -0.00   0.00
  52   1     0.00   0.00  -0.01    -0.05  -0.11   0.27     0.01   0.01  -0.03
  53   1    -0.01   0.04   0.04     0.16  -0.60  -0.66    -0.02   0.09   0.10
  54   1    -0.00   0.00  -0.00     0.06  -0.04   0.02    -0.01   0.01  -0.00
  55   1    -0.00  -0.00   0.00    -0.00   0.01  -0.01    -0.00  -0.00   0.00
  56   6     0.00   0.00  -0.00     0.00   0.00  -0.00    -0.00  -0.00   0.00
  57   8    -0.00  -0.00   0.00    -0.00  -0.00   0.00     0.00   0.00  -0.00
  58   6     0.00   0.00   0.00    -0.00  -0.00  -0.00     0.00   0.00   0.00
  59   8    -0.00  -0.00  -0.00     0.00   0.00   0.00    -0.00  -0.00  -0.00
