      -----------------------------------------------------------      
     |                   =====================                   |     
     |                           x T B                           |     
     |                   =====================                   |     
     |                         S. Grimme                         |     
     |          Mulliken Center for Theoretical Chemistry        |     
     |                    University of Bonn                     |     
      -----------------------------------------------------------      

   * xtb version 6.5.0 (97a52f5) compiled by 'conda@d2599ee0d4f4' on 2022-05-15

   xtb is free software: you can redistribute it and/or modify it under
   the terms of the GNU Lesser General Public License as published by
   the Free Software Foundation, either version 3 of the License, or
   (at your option) any later version.
   
   xtb is distributed in the hope that it will be useful,
   but WITHOUT ANY WARRANTY; without even the implied warranty of
   MERCHANTABILITY or FITNESS FOR A PARTICULAR PURPOSE.  See the
   GNU Lesser General Public License for more details.
   
   Cite this work as:
   * C. Bannwarth, E. Caldeweyher, S. Ehlert, A. Hansen, P. Pracht,
     J. Seibert, S. Spicher, S. Grimme, WIREs Comput. Mol. Sci., 2020, 11,
     e01493. DOI: 10.1002/wcms.1493
   
   for GFN2-xTB:
   * C. Bannwarth, S. Ehlert and S. Grimme., J. Chem. Theory Comput., 2019,
     15, 1652-1671. DOI: 10.1021/acs.jctc.8b01176
   for GFN1-xTB:
   * S. Grimme, C. Bannwarth, P. Shushkov, J. Chem. Theory Comput., 2017,
     13, 1989-2009. DOI: 10.1021/acs.jctc.7b00118
   for GFN0-xTB:
   * P. Pracht, E. Caldeweyher, S. Ehlert, S. Grimme, ChemRxiv, 2019, preprint.
     DOI: 10.26434/chemrxiv.8326202.v1
   for GFN-FF:
   * S. Spicher and S. Grimme, Angew. Chem. Int. Ed., 2020, 59, 15665-15673.
     DOI: 10.1002/anie.202004239
   
   for ALPB and GBSA implicit solvation:
   * S. Ehlert, M. Stahn, S. Spicher, S. Grimme, J. Chem. Theory Comput.,
     2021, 17, 4250-4261. DOI: 10.1021/acs.jctc.1c00471
   
   for DFT-D4:
   * E. Caldeweyher, C. Bannwarth and S. Grimme, J. Chem. Phys., 2017,
     147, 034112. DOI: 10.1063/1.4993215
   * E. Caldeweyher, S. Ehlert, A. Hansen, H. Neugebauer, S. Spicher,
     C. Bannwarth and S. Grimme, J. Chem. Phys., 2019, 150, 154122.
     DOI: 10.1063/1.5090222
   * E. Caldeweyher, J.-M. Mewes, S. Ehlert and S. Grimme, Phys. Chem. Chem. Phys.
     2020, 22, 8499-8512. DOI: 10.1039/D0CP00502A
   
   for sTDA-xTB:
   * S. Grimme and C. Bannwarth, J. Chem. Phys., 2016, 145, 054103.
     DOI: 10.1063/1.4959605
   
   in the mass-spec context:
   * V. Asgeirsson, C. Bauer and S. Grimme, Chem. Sci., 2017, 8, 4879.
     DOI: 10.1039/c7sc00601b
   * J. Koopman and S. Grimme, ACS Omega 2019, 4, 12, 15120-15133.
     DOI: 10.1021/acsomega.9b02011
   
   for metadynamics refer to:
   * S. Grimme, J. Chem. Theory Comput., 2019, 155, 2847-2862
     DOI: 10.1021/acs.jctc.9b00143
   
   for SPH calculations refer to:
   * S. Spicher and S. Grimme, J. Chem. Theory Comput., 2021, 17, 1701-1714
     DOI: 10.1021/acs.jctc.0c01306
   
   with help from (in alphabetical order)
   P. Atkinson, C. Bannwarth, F. Bohle, G. Brandenburg, E. Caldeweyher
   M. Checinski, S. Dohm, S. Ehlert, S. Ehrlich, I. Gerasimov, C. Hölzer
   A. Katbashev, J. Koopman, C. Lavigne, S. Lehtola, F. März, M. Müller,
   F. Musil, H. Neugebauer, J. Pisarek, C. Plett, P. Pracht, F. Pultar,
   J. Seibert, P. Shushkov, S. Spicher, M. Stahn, M. Steiner, T. Strunk,
   J. Stückrath, T. Rose, and J. Unsleber
   
 * started run on 2022/05/27 at 18:09:15.164     

           -------------------------------------------------
          |                Calculation Setup                |
           -------------------------------------------------

          program call               : xtb struc.xyz --gfn2 --hess
          hostname                   : fedora
          coordinate file            : struc.xyz
          omp threads                :                     1

   ID    Z sym.   atoms
    1   28 Ni     1
    2    7 N      2, 4, 29, 31
    3    6 C      3, 5-12, 30, 32-39, 56, 58
    4    1 H      13-28, 40-55
    5    8 O      57, 59

molecular fragmentation (1/2 indicates fragments):
11111111111111111111111111111111111111111111111111111111122
# atoms in fragment 1/2:    57     2
 fragment masses (1/2) :      391.18       28.01
CMA distance (Bohr)    :   5.629
constraining FC (au)   :  0.0500

           -------------------------------------------------
          |                 G F N 2 - x T B                 |
           -------------------------------------------------

        Reference                      10.1021/acs.jctc.8b01176
      * Hamiltonian:
        H0-scaling (s, p, d)           1.850000    2.230000    2.230000
        zeta-weighting                 0.500000
      * Dispersion:
        s8                             2.700000
        a1                             0.520000
        a2                             5.000000
        s9                             5.000000
      * Repulsion:
        kExp                           1.500000    1.000000
        rExp                           1.000000
      * Coulomb:
        alpha                          2.000000
        third order                    shell-resolved
        anisotropic                    true
        a3                             3.000000
        a5                             4.000000
        cn-shift                       1.200000
        cn-exp                         4.000000
        max-rad                        5.000000


          ...................................................
          :                      SETUP                      :
          :.................................................:
          :  # basis functions                 146          :
          :  # atomic orbitals                 145          :
          :  # shells                           87          :
          :  # electrons                       154          :
          :  max. iterations                   250          :
          :  Hamiltonian                  GFN2-xTB          :
          :  restarted?                      false          :
          :  GBSA solvation                  false          :
          :  PC potential                    false          :
          :  electronic temp.          300.0000000     K    :
          :  accuracy                    1.0000000          :
          :  -> integral cutoff          0.2500000E+02      :
          :  -> integral neglect         0.1000000E-07      :
          :  -> SCF convergence          0.1000000E-05 Eh   :
          :  -> wf. convergence          0.1000000E-03 e    :
          :  Broyden damping             0.4000000          :
          ...................................................

 iter      E             dE          RMSdq      gap      omega  full diag
   1    -84.6567099 -0.846567E+02  0.459E+00    3.88       0.0  T
   2    -84.8727404 -0.216030E+00  0.257E+00    3.04       1.0  T
   3    -84.8808589 -0.811855E-02  0.127E+00    2.13       1.0  T
   4    -84.9169038 -0.360449E-01  0.694E-01    2.32       1.0  T
   5    -84.9173412 -0.437391E-03  0.245E-01    2.39       1.0  T
   6    -84.9186911 -0.134988E-02  0.168E-01    2.35       1.0  T
   7    -84.9188597 -0.168547E-03  0.811E-02    2.36       1.0  T
   8    -84.9188777 -0.180812E-04  0.323E-02    2.36       1.0  T
   9    -84.9188879 -0.101409E-04  0.142E-02    2.36       1.0  T
  10    -84.9188866  0.128740E-05  0.767E-03    2.36       1.7  T
  11    -84.9188891 -0.247461E-05  0.292E-03    2.36       4.5  T
  12    -84.9188894 -0.346575E-06  0.139E-03    2.36       9.4  T
  13    -84.9188894 -0.357959E-08  0.108E-03    2.36      12.1  T
  14    -84.9188895 -0.322331E-07  0.363E-04    2.36      35.8  T
  15    -84.9188895  0.369297E-08  0.394E-04    2.36      33.0  T

   *** convergence criteria satisfied after 15 iterations ***

         #    Occupation            Energy/Eh            Energy/eV
      -------------------------------------------------------------
         1        2.0000           -0.7164287             -19.4950
       ...           ...                  ...                  ...
        71        2.0000           -0.3619336              -9.8487
        72        2.0000           -0.3612571              -9.8303
        73        2.0000           -0.3286981              -8.9443
        74        2.0000           -0.3268758              -8.8947
        75        2.0000           -0.3191049              -8.6833
        76        2.0000           -0.3113144              -8.4713
        77        2.0000           -0.3089431              -8.4068 (HOMO)
        78                         -0.2222646              -6.0481 (LUMO)
        79                         -0.2159508              -5.8763
        80                         -0.2025298              -5.5111
        81                         -0.2011193              -5.4727
        82                         -0.1909270              -5.1954
       ...                                ...                  ...
       145                          1.2560146              34.1779
      -------------------------------------------------------------
                  HL-Gap            0.0866785 Eh            2.3586 eV
             Fermi-level           -0.2656038 Eh           -7.2274 eV

 SCC (total)                   0 d,  0 h,  0 min,  0.726 sec
 SCC setup                      ...        0 min,  0.000 sec (  0.068%)
 Dispersion                     ...        0 min,  0.001 sec (  0.128%)
 classical contributions        ...        0 min,  0.000 sec (  0.020%)
 integral evaluation            ...        0 min,  0.075 sec ( 10.305%)
 iterations                     ...        0 min,  0.400 sec ( 55.050%)
 molecular gradient             ...        0 min,  0.249 sec ( 34.336%)
 printout                       ...        0 min,  0.001 sec (  0.090%)

         :::::::::::::::::::::::::::::::::::::::::::::::::::::
         ::                     SUMMARY                     ::
         :::::::::::::::::::::::::::::::::::::::::::::::::::::
         :: total energy             -83.872905515939 Eh    ::
         :: gradient norm              0.000244685220 Eh/a0 ::
         :: HOMO-LUMO gap              2.358641891053 eV    ::
         ::.................................................::
         :: SCC energy               -84.918889452345 Eh    ::
         :: -> isotropic ES            0.077772177192 Eh    ::
         :: -> anisotropic ES          0.016792286548 Eh    ::
         :: -> anisotropic XC          0.038346381324 Eh    ::
         :: -> dispersion             -0.067526245060 Eh    ::
         :: repulsion energy           1.044714286818 Eh    ::
         :: add. restraining           0.000000000000 Eh    ::
         :: total charge              -0.000000000000 e     ::
         :::::::::::::::::::::::::::::::::::::::::::::::::::::

           ------------------------------------------------- 
          |                Numerical Hessian                |
           ------------------------------------------------- 
step length          :   0.00500
SCC accuracy         :   0.30000
Hessian scale factor :   1.00000
frozen atoms in %    :   0.00000    0
RMS gradient         :   0.00025
estimated CPU  time      0.39 min
estimated wall time      2.57 min

writing file <hessian>.

 projected vibrational frequencies (cm⁻¹)
eigval :       -0.00    -0.00    -0.00    -0.00     0.00     0.00
eigval :       16.64    18.45    26.66    27.09    42.30    56.35
eigval :       58.39    58.54    65.98    76.59    77.09    87.88
eigval :       93.11    97.11    99.30   159.93   165.38   177.13
eigval :      179.50   224.57   235.64   238.98   255.77   258.31
eigval :      268.98   297.15   297.44   320.73   348.06   349.32
eigval :      367.54   368.69   392.45   393.29   427.13   428.23
eigval :      428.91   467.74   468.57   481.18   499.39   500.18
eigval :      521.09   522.09   537.11   621.77   622.32   656.83
eigval :      658.31   732.38   734.08   846.79   846.87   861.38
eigval :      861.72   878.98   879.15   899.90   900.30   909.94
eigval :      910.16   928.67   929.81   954.37   956.55   978.21
eigval :      978.42   996.55   996.97  1024.92  1024.96  1050.18
eigval :     1050.96  1091.79  1091.95  1101.58  1103.40  1116.24
eigval :     1116.92  1121.91  1123.60  1143.15  1143.27  1144.56
eigval :     1145.14  1168.58  1169.24  1189.73  1190.23  1200.15
eigval :     1201.07  1217.03  1217.11  1233.23  1233.26  1244.69
eigval :     1244.87  1252.07  1252.67  1267.62  1268.28  1300.90
eigval :     1304.89  1316.76  1316.91  1328.01  1328.37  1332.51
eigval :     1332.70  1340.38  1340.91  1344.52  1344.73  1355.08
eigval :     1355.13  1360.55  1360.73  1424.04  1425.34  1442.90
eigval :     1443.81  1470.34  1474.46  1476.28  1477.27  1477.60
eigval :     1478.20  1482.77  1482.87  1490.00  1490.11  1495.48
eigval :     1495.67  1499.92  1499.94  1642.66  1650.94  1967.28
eigval :     1994.69  2870.37  2870.56  2890.45  2893.54  2895.73
eigval :     2896.29  2924.23  2924.64  2945.87  2945.95  2956.67
eigval :     2956.79  2962.64  2962.75  2964.58  2964.85  2969.40
eigval :     2972.50  2973.55  2973.61  2976.71  2976.78  2985.42
eigval :     2985.64  2986.48  2986.76  2987.19  2987.25  2999.86
eigval :     2999.91  3001.34  3001.57
           -------------------------------------------------
          |                Property Printout                |
           -------------------------------------------------

    * Orbital Energies and Occupations

         #    Occupation            Energy/Eh            Energy/eV
      -------------------------------------------------------------
         1        2.0000           -0.7164336             -19.4952
       ...           ...                  ...                  ...
        65        2.0000           -0.4202497             -11.4356
        66        2.0000           -0.4194990             -11.4151
        67        2.0000           -0.4177342             -11.3671
        68        2.0000           -0.4172831             -11.3549
        69        2.0000           -0.3830919             -10.4245
        70        2.0000           -0.3810978             -10.3702
        71        2.0000           -0.3619322              -9.8487
        72        2.0000           -0.3612558              -9.8303
        73        2.0000           -0.3286926              -8.9442
        74        2.0000           -0.3268701              -8.8946
        75        2.0000           -0.3190992              -8.6831
        76        2.0000           -0.3113090              -8.4711
        77        2.0000           -0.3089389              -8.4067 (HOMO)
        78                         -0.2222698              -6.0483 (LUMO)
        79                         -0.2159559              -5.8765
        80                         -0.2025341              -5.5112
        81                         -0.2011227              -5.4728
        82                         -0.1909274              -5.1954
        83                         -0.1885361              -5.1303
        84                         -0.0098674              -0.2685
        85                         -0.0087832              -0.2390
        86                          0.0546169               1.4862
        87                          0.0558710               1.5203
        88                          0.0683783               1.8607
       ...                                ...                  ...
       145                          1.2560144              34.1779
      -------------------------------------------------------------
                  HL-Gap            0.0866691 Eh            2.3584 eV
             Fermi-level           -0.2656043 Eh           -7.2275 eV

     #   Z          covCN         q      C6AA      α(0)
     1  28 Ni       2.918    -0.886   202.834    29.386
     2   7 N        2.409    -0.111    23.530     7.203
     3   6 C        2.850     0.153    24.687     8.143
     4   7 N        2.739    -0.097    23.147     7.145
     5   6 C        3.748     0.001    20.635     6.479
     6   6 C        3.801    -0.061    21.673     6.628
     7   6 C        3.802    -0.057    21.604     6.617
     8   6 C        3.802    -0.052    21.515     6.604
     9   6 C        3.810    -0.070    21.837     6.652
    10   6 C        3.754     0.010    20.465     6.451
    11   6 C        3.806    -0.063    21.713     6.633
    12   6 C        3.771     0.021    20.259     6.414
    13   1 H        0.924     0.037     2.488     2.467
    14   1 H        0.924     0.047     2.358     2.402
    15   1 H        0.924     0.032     2.553     2.499
    16   1 H        0.924     0.040     2.443     2.444
    17   1 H        0.924     0.030     2.583     2.513
    18   1 H        0.924     0.033     2.546     2.495
    19   1 H        0.924     0.047     2.352     2.398
    20   1 H        0.924     0.040     2.448     2.447
    21   1 H        0.923     0.115     1.651     2.009
    22   1 H        0.924     0.041     2.434     2.440
    23   1 H        0.924     0.036     2.507     2.476
    24   1 H        0.923     0.029     2.596     2.520
    25   1 H        0.924     0.046     2.365     2.405
    26   1 H        0.925     0.033     2.539     2.492
    27   1 H        0.924     0.069     2.099     2.266
    28   1 H        0.923     0.024     2.680     2.560
    29   7 N        2.408    -0.111    23.533     7.203
    30   6 C        2.850     0.153    24.686     8.143
    31   7 N        2.739    -0.097    23.145     7.145
    32   6 C        3.748     0.001    20.635     6.479
    33   6 C        3.801    -0.061    21.673     6.628
    34   6 C        3.802    -0.057    21.604     6.617
    35   6 C        3.802    -0.053    21.515     6.604
    36   6 C        3.810    -0.070    21.838     6.652
    37   6 C        3.754     0.010    20.464     6.451
    38   6 C        3.806    -0.063    21.712     6.633
    39   6 C        3.772     0.021    20.258     6.414
    40   1 H        0.924     0.037     2.488     2.467
    41   1 H        0.924     0.047     2.359     2.402
    42   1 H        0.924     0.032     2.553     2.499
    43   1 H        0.924     0.040     2.443     2.444
    44   1 H        0.924     0.030     2.583     2.513
    45   1 H        0.924     0.033     2.546     2.495
    46   1 H        0.924     0.047     2.353     2.399
    47   1 H        0.924     0.040     2.448     2.447
    48   1 H        0.923     0.115     1.651     2.009
    49   1 H        0.924     0.041     2.433     2.440
    50   1 H        0.924     0.036     2.506     2.476
    51   1 H        0.923     0.029     2.597     2.520
    52   1 H        0.924     0.047     2.363     2.404
    53   1 H        0.925     0.033     2.539     2.492
    54   1 H        0.924     0.069     2.100     2.266
    55   1 H        0.923     0.023     2.682     2.561
    56   6 C        1.740     0.273    25.039     8.095
    57   8 O        0.856    -0.202    18.098     5.704
    58   6 C        1.740     0.273    25.039     8.095
    59   8 O        0.856    -0.202    18.100     5.704

 Mol. C6AA /au·bohr⁶  :      34074.540135
 Mol. C8AA /au·bohr⁸  :     865188.260351
 Mol. α(0) /au        :        284.587788


Wiberg/Mayer (AO) data.
largest (>0.10) Wiberg bond orders for each atom

 ---------------------------------------------------------------------------
     #   Z sym  total        # sym  WBO       # sym  WBO       # sym  WBO
 ---------------------------------------------------------------------------
     1  28 Ni   3.989 --    58 C    1.177    56 C    1.177     2 N    0.451
                            29 N    0.451    59 O    0.214    57 O    0.214
     2   7 N    3.427 --     3 C    1.622    12 C    1.005     1 Ni   0.451
                             4 N    0.159
     3   6 C    3.966 --     2 N    1.622     4 N    1.220     9 C    0.997
     4   7 N    3.458 --     3 C    1.220     5 C    0.994    10 C    0.986
                             2 N    0.159
     5   6 C    3.977 --     6 C    0.994     4 N    0.994    13 H    0.974
                            14 H    0.965
     6   6 C    3.996 --     7 C    1.009     5 C    0.994    15 H    0.976
                            16 H    0.976
     7   6 C    3.997 --     6 C    1.009     8 C    1.009    18 H    0.976
                            17 H    0.976
     8   6 C    3.994 --     7 C    1.009     9 C    0.992    20 H    0.976
                            19 H    0.975
     9   6 C    3.992 --     3 C    0.997     8 C    0.992    22 H    0.959
                            21 H    0.909
    10   6 C    3.980 --    11 C    1.007     4 N    0.986    23 H    0.968
                            24 H    0.968
    11   6 C    3.995 --    10 C    1.007    12 C    0.996    25 H    0.976
                            26 H    0.975
    12   6 C    3.990 --     2 N    1.005    11 C    0.996    28 H    0.962
                            27 H    0.955
    13   1 H    0.998 --     5 C    0.974
    14   1 H    0.997 --     5 C    0.965
    15   1 H    0.998 --     6 C    0.976
    16   1 H    0.998 --     6 C    0.976
    17   1 H    0.999 --     7 C    0.976
    18   1 H    0.999 --     7 C    0.976
    19   1 H    0.998 --     8 C    0.975
    20   1 H    0.998 --     8 C    0.976
    21   1 H    0.987 --     9 C    0.909
    22   1 H    0.998 --     9 C    0.959
    23   1 H    0.998 --    10 C    0.968
    24   1 H    0.999 --    10 C    0.968
    25   1 H    0.998 --    11 C    0.976
    26   1 H    0.998 --    11 C    0.975
    27   1 H    0.995 --    12 C    0.955
    28   1 H    0.999 --    12 C    0.962
    29   7 N    3.426 --    30 C    1.622    39 C    1.005     1 Ni   0.451
                            31 N    0.159
    30   6 C    3.966 --    29 N    1.622    31 N    1.220    36 C    0.997
    31   7 N    3.458 --    30 C    1.220    32 C    0.994    37 C    0.986
                            29 N    0.159
    32   6 C    3.977 --    33 C    0.994    31 N    0.994    40 H    0.973
                            41 H    0.965
    33   6 C    3.996 --    34 C    1.009    32 C    0.994    42 H    0.976
                            43 H    0.976
    34   6 C    3.997 --    33 C    1.009    35 C    1.009    45 H    0.976
                            44 H    0.976
    35   6 C    3.995 --    34 C    1.009    36 C    0.992    47 H    0.976
                            46 H    0.975
    36   6 C    3.992 --    30 C    0.997    35 C    0.992    49 H    0.959
                            48 H    0.909
    37   6 C    3.980 --    38 C    1.007    31 N    0.986    50 H    0.968
                            51 H    0.968
    38   6 C    3.995 --    37 C    1.007    39 C    0.996    52 H    0.976
                            53 H    0.975
    39   6 C    3.990 --    29 N    1.005    38 C    0.996    55 H    0.962
                            54 H    0.955
    40   1 H    0.998 --    32 C    0.973
    41   1 H    0.997 --    32 C    0.965
    42   1 H    0.998 --    33 C    0.976
    43   1 H    0.998 --    33 C    0.976
    44   1 H    0.999 --    34 C    0.976
    45   1 H    0.999 --    34 C    0.976
    46   1 H    0.998 --    35 C    0.975
    47   1 H    0.998 --    35 C    0.976
    48   1 H    0.987 --    36 C    0.909
    49   1 H    0.998 --    36 C    0.959
    50   1 H    0.998 --    37 C    0.968
    51   1 H    0.999 --    37 C    0.968
    52   1 H    0.998 --    38 C    0.976
    53   1 H    0.998 --    38 C    0.975
    54   1 H    0.995 --    39 C    0.955
    55   1 H    0.999 --    39 C    0.962
    56   6 C    3.499 --    57 O    2.202     1 Ni   1.177
    57   8 O    2.481 --    56 C    2.202     1 Ni   0.214
    58   6 C    3.499 --    59 O    2.202     1 Ni   1.177
    59   8 O    2.481 --    58 C    2.202     1 Ni   0.214
 ---------------------------------------------------------------------------

Topologies differ in total number of bonds
Writing topology from bond orders to xtbtopo.mol

molecular dipole:
                 x           y           z       tot (Debye)
 q only:       -0.086       0.187       1.744
   full:       -0.115       0.251       2.340       5.989
molecular quadrupole (traceless):
                xx          xy          yy          xz          yz          zz
 q only:       29.633      -6.992     -17.366       2.860       0.207     -12.266
  q+dip:       33.623      -4.771     -17.902       2.989      -0.008     -15.722
   full:       33.204      -6.415     -19.113       3.062       0.223     -14.091

           -------------------------------------------------
          |               Frequency Printout                |
           -------------------------------------------------
 projected vibrational frequencies (cm⁻¹)
eigval :       -0.00    -0.00    -0.00    -0.00     0.00     0.00
eigval :       16.64    18.45    26.66    27.09    42.30    56.35
eigval :       58.39    58.54    65.98    76.59    77.09    87.88
eigval :       93.11    97.11    99.30   159.93   165.38   177.13
eigval :      179.50   224.57   235.64   238.98   255.77   258.31
eigval :      268.98   297.15   297.44   320.73   348.06   349.32
eigval :      367.54   368.69   392.45   393.29   427.13   428.23
eigval :      428.91   467.74   468.57   481.18   499.39   500.18
eigval :      521.09   522.09   537.11   621.77   622.32   656.83
eigval :      658.31   732.38   734.08   846.79   846.87   861.38
eigval :      861.72   878.98   879.15   899.90   900.30   909.94
eigval :      910.16   928.67   929.81   954.37   956.55   978.21
eigval :      978.42   996.55   996.97  1024.92  1024.96  1050.18
eigval :     1050.96  1091.79  1091.95  1101.58  1103.40  1116.24
eigval :     1116.92  1121.91  1123.60  1143.15  1143.27  1144.56
eigval :     1145.14  1168.58  1169.24  1189.73  1190.23  1200.15
eigval :     1201.07  1217.03  1217.11  1233.23  1233.26  1244.69
eigval :     1244.87  1252.07  1252.67  1267.62  1268.28  1300.90
eigval :     1304.89  1316.76  1316.91  1328.01  1328.37  1332.51
eigval :     1332.70  1340.38  1340.91  1344.52  1344.73  1355.08
eigval :     1355.13  1360.55  1360.73  1424.04  1425.34  1442.90
eigval :     1443.81  1470.34  1474.46  1476.28  1477.27  1477.60
eigval :     1478.20  1482.77  1482.87  1490.00  1490.11  1495.48
eigval :     1495.67  1499.92  1499.94  1642.66  1650.94  1967.28
eigval :     1994.69  2870.37  2870.56  2890.45  2893.54  2895.73
eigval :     2896.29  2924.23  2924.64  2945.87  2945.95  2956.67
eigval :     2956.79  2962.64  2962.75  2964.58  2964.85  2969.40
eigval :     2972.50  2973.55  2973.61  2976.71  2976.78  2985.42
eigval :     2985.64  2986.48  2986.76  2987.19  2987.25  2999.86
eigval :     2999.91  3001.34  3001.57
 reduced masses (amu)
   1: 15.72   2: 16.04   3: 11.91   4: 13.89   5: 17.21   6: 14.61   7: 11.72   8: 15.67
   9: 13.94  10: 13.03  11: 14.70  12: 15.62  13: 13.41  14: 14.34  15: 16.12  16: 19.09
  17: 10.97  18:  9.22  19: 10.82  20: 10.27  21: 13.47  22: 20.77  23: 12.30  24: 25.47
  25: 25.14  26: 15.57  27:  9.23  28:  9.79  29: 10.95  30:  9.87  31: 13.76  32:  7.73
  33:  7.70  34: 20.62  35: 10.03  36: 11.08  37:  8.67  38:  8.64  39: 10.30  40: 10.25
  41: 17.17  42:  8.54  43: 12.19  44:  8.54  45:  8.93  46: 12.69  47:  9.80  48:  9.49
  49:  7.40  50:  6.53  51: 25.46  52: 10.60  53: 10.60  54:  8.11  55:  8.08  56:  9.93
  57:  9.92  58:  6.73  59:  6.73  60:  5.62  61:  5.63  62:  6.79  63:  6.80  64:  5.04
  65:  5.07  66:  6.11  67:  6.19  68:  6.12  69:  6.17  70:  8.31  71:  8.39  72:  7.30
  73:  7.29  74:  7.48  75:  7.51  76:  7.14  77:  7.20  78:  6.47  79:  6.46  80:  6.89
  81:  6.87  82:  6.43  83:  6.41  84:  6.88  85:  6.25  86:  6.92  87:  7.67  88:  7.31
  89:  7.33  90:  7.65  91:  7.70  92:  3.97  93:  4.00  94:  4.17  95:  4.33  96:  4.22
  97:  4.20  98:  5.00  99:  5.03 100:  4.55 101:  4.46 102:  2.81 103:  2.79 104:  3.81
 105:  3.71 106:  5.49 107:  5.47 108:  4.14 109:  4.01 110:  4.83 111:  4.81 112:  4.63
 113:  4.68 114:  4.65 115:  4.60 116:  5.25 117:  5.24 118:  4.49 119:  4.55 120:  4.87
 121:  4.86 122:  4.98 123:  4.98 124:  7.62 125:  7.74 126:  4.16 127:  4.12 128:  2.00
 129:  1.97 130:  1.95 131:  1.94 132:  2.07 133:  2.11 134:  2.10 135:  2.06 136:  2.14
 137:  2.15 138:  2.12 139:  2.11 140:  1.94 141:  1.94 142: 12.22 143: 12.28 144: 13.64
 145: 13.63 146:  1.86 147:  1.86 148:  1.76 149:  1.77 150:  1.75 151:  1.75 152:  1.58
 153:  1.58 154:  1.89 155:  1.89 156:  1.86 157:  1.86 158:  1.63 159:  1.63 160:  1.70
 161:  1.70 162:  1.69 163:  1.67 164:  1.76 165:  1.75 166:  1.80 167:  1.81 168:  1.83
 169:  1.83 170:  1.69 171:  1.64 172:  1.78 173:  1.72 174:  1.59 175:  1.59 176:  1.60
 177:  1.61
 IR intensities (km·mol⁻¹)
   1:  0.24   2:  0.55   3:  0.41   4:  0.13   5:  0.09   6:  1.16   7:  0.83   8:  0.90
   9:  0.42  10:  0.91  11:  0.13  12:  0.02  13:  0.33  14:  0.24  15:  0.82  16:  2.14
  17:  0.10  18:  0.81  19:  0.21  20:  0.93  21:  0.19  22:  0.11  23:  0.96  24:  0.24
  25:  0.02  26:  4.15  27:  0.85  28:  2.12  29:  1.21  30:  2.68  31:  3.60  32:  0.34
  33:  0.14  34:  4.72  35:  3.08  36:  5.12  37:  9.95  38:  4.60  39:  0.65  40:  1.92
  41: 12.03  42:  5.29  43:  2.93  44:  2.19  45:  0.91  46:  0.24  47:  1.91  48:  0.43
  49:  3.63  50:  1.48  51:  4.23  52: 14.90  53:  5.90  54:  6.93  55:  3.52  56:  0.39
  57:  0.68  58:  0.38  59:  0.24  60:  0.32  61: 13.23  62:  4.71  63:  0.46  64:  8.67
  65:  0.02  66:  2.22  67:  0.62  68:  0.03  69:  5.04  70:  0.26  71:  1.11  72:  2.79
  73: 16.58  74:  2.58  75:  9.83  76:  3.51  77: 22.70  78: 11.92  79:  2.29  80:  4.35
  81:  1.73  82: 20.04  83:  4.74  84:  6.45  85:  0.21  86: 10.29  87: 25.18  88:  6.61
  89:  0.99  90:  0.01  91:  0.34  92:  4.31  93:  2.52  94: 23.14  95: 17.02  96:  7.19
  97:  1.44  98:  1.85  99: 11.92 100: 28.91 101:  0.67 102:  0.28 103:  5.42 104:  5.34
 105:  0.88 106: 26.77 107:  0.69 108: 56.30 109:  0.35 110: 14.49 111:  2.73 112:  0.78
 113:  0.99 114: 33.01 115:  7.99 116: 13.29 117: 34.50 118: 19.38 119:  4.77 120:  0.18
 121:  0.01 122: 11.08 123:  0.49 124:113.96 125: 42.36 126: 64.24 127: 17.32 128: 11.53
 129:  0.66 130:  0.74 131:  0.18 132:  2.13 133:  0.01 134:  1.13 135:  3.18 136:  8.10
 137:  7.19 138:  1.76 139:  0.11 140:  0.85 141:  0.11 142:****** 143: 47.14 144:******
 145:509.45 146: 16.05 147: 52.18 148: 23.89 149: 79.29 150: 10.89 151:  7.07 152: 83.09
 153: 30.92 154: 15.69 155: 14.95 156: 12.73 157: 10.85 158: 11.75 159: 12.12 160: 23.90
 161: 32.12 162: 37.08 163:  1.75 164: 55.08 165: 40.96 166: 65.06 167:  4.48 168: 88.93
 169:121.73 170: 69.12 171:  3.83 172: 13.09 173: 78.32 174: 34.18 175: 33.35 176: 62.31
 177: 48.97
 Raman intensities (amu)
   1:  0.00   2:  0.00   3:  0.00   4:  0.00   5:  0.00   6:  0.00   7:  0.00   8:  0.00
   9:  0.00  10:  0.00  11:  0.00  12:  0.00  13:  0.00  14:  0.00  15:  0.00  16:  0.00
  17:  0.00  18:  0.00  19:  0.00  20:  0.00  21:  0.00  22:  0.00  23:  0.00  24:  0.00
  25:  0.00  26:  0.00  27:  0.00  28:  0.00  29:  0.00  30:  0.00  31:  0.00  32:  0.00
  33:  0.00  34:  0.00  35:  0.00  36:  0.00  37:  0.00  38:  0.00  39:  0.00  40:  0.00
  41:  0.00  42:  0.00  43:  0.00  44:  0.00  45:  0.00  46:  0.00  47:  0.00  48:  0.00
  49:  0.00  50:  0.00  51:  0.00  52:  0.00  53:  0.00  54:  0.00  55:  0.00  56:  0.00
  57:  0.00  58:  0.00  59:  0.00  60:  0.00  61:  0.00  62:  0.00  63:  0.00  64:  0.00
  65:  0.00  66:  0.00  67:  0.00  68:  0.00  69:  0.00  70:  0.00  71:  0.00  72:  0.00
  73:  0.00  74:  0.00  75:  0.00  76:  0.00  77:  0.00  78:  0.00  79:  0.00  80:  0.00
  81:  0.00  82:  0.00  83:  0.00  84:  0.00  85:  0.00  86:  0.00  87:  0.00  88:  0.00
  89:  0.00  90:  0.00  91:  0.00  92:  0.00  93:  0.00  94:  0.00  95:  0.00  96:  0.00
  97:  0.00  98:  0.00  99:  0.00 100:  0.00 101:  0.00 102:  0.00 103:  0.00 104:  0.00
 105:  0.00 106:  0.00 107:  0.00 108:  0.00 109:  0.00 110:  0.00 111:  0.00 112:  0.00
 113:  0.00 114:  0.00 115:  0.00 116:  0.00 117:  0.00 118:  0.00 119:  0.00 120:  0.00
 121:  0.00 122:  0.00 123:  0.00 124:  0.00 125:  0.00 126:  0.00 127:  0.00 128:  0.00
 129:  0.00 130:  0.00 131:  0.00 132:  0.00 133:  0.00 134:  0.00 135:  0.00 136:  0.00
 137:  0.00 138:  0.00 139:  0.00 140:  0.00 141:  0.00 142:  0.00 143:  0.00 144:  0.00
 145:  0.00 146:  0.00 147:  0.00 148:  0.00 149:  0.00 150:  0.00 151:  0.00 152:  0.00
 153:  0.00 154:  0.00 155:  0.00 156:  0.00 157:  0.00 158:  0.00 159:  0.00 160:  0.00
 161:  0.00 162:  0.00 163:  0.00 164:  0.00 165:  0.00 166:  0.00 167:  0.00 168:  0.00
 169:  0.00 170:  0.00 171:  0.00 172:  0.00 173:  0.00 174:  0.00 175:  0.00 176:  0.00
 177:  0.00
 output can be read by thermo (or use thermo option).
 writing <g98.out> molden fake output.
Molecule has the following symmetry elements: (C2) 
It seems to be the C2 point group
 recommended (thermochemical) frequency scaling factor: 1.0
           -------------------------------------------------
          |             Thermodynamic Functions             |
           -------------------------------------------------

c2  symmetry found (for desy threshold:  0.10E+00) used in thermo

          ...................................................
          :                      SETUP                      :
          :.................................................:
          :  # frequencies                         171      :
          :  # imaginary freq.                       0      :
          :  linear?                             false      :
          :  only rotor calc.                    false      :
          :  symmetry                               c2      :
          :  rotational number                       2      :
          :  scaling factor                  1.0000000      :
          :  rotor cutoff                   50.0000000 cm⁻¹ :
          :  imag. cutoff                  -20.0000000 cm⁻¹ :
          :.................................................:

    mode    ω/cm⁻¹     T·S(HO)/kcal·mol⁻¹    T·S(FR)/kcal·mol⁻¹   T·S(vib)
   ------------------------------------------------------------------------
       1     16.64    -2.08696 (  1.21%)    -1.38244 ( 98.79%)    -1.39098
       2     18.45    -2.02580 (  1.82%)    -1.35186 ( 98.18%)    -1.36412
       3     26.66    -1.80790 (  7.48%)    -1.24281 ( 92.52%)    -1.28506
       4     27.09    -1.79845 (  7.93%)    -1.23809 ( 92.07%)    -1.28253
       5     42.30    -1.53497 ( 33.87%)    -1.10606 ( 66.13%)    -1.25135
       6     56.35    -1.36590 ( 61.73%)    -1.02113 ( 38.27%)    -1.23394
       7     58.39    -1.34487 ( 65.04%)    -1.01055 ( 34.96%)    -1.22799
       8     58.54    -1.34338 ( 65.27%)    -1.00981 ( 34.73%)    -1.22753
       9     65.98    -1.27308 ( 75.20%)    -0.97439 ( 24.80%)    -1.19900
      10     76.59    -1.18558 ( 84.63%)    -0.93021 ( 15.37%)    -1.14632
      11     77.09    -1.18178 ( 84.96%)    -0.92829 ( 15.04%)    -1.14366
      12     87.88    -1.10514 ( 90.52%)    -0.88946 (  9.48%)    -1.08469
      13     93.11    -1.07144 ( 92.32%)    -0.87234 (  7.68%)    -1.05615
      14     97.11    -1.04693 ( 93.43%)    -0.85988 (  6.57%)    -1.03465
      15     99.30    -1.03399 ( 93.96%)    -0.85328 (  6.04%)    -1.02308
      16    159.93    -0.76046 ( 99.05%)    -0.71209 (  0.95%)    -0.76000
      17    165.38    -0.74160 ( 99.17%)    -0.70217 (  0.83%)    -0.74127
      18    177.13    -0.70317 ( 99.37%)    -0.68184 (  0.63%)    -0.70303
      19    179.50    -0.69577 ( 99.40%)    -0.67791 (  0.60%)    -0.69567
      20    224.57    -0.57303 ( 99.75%)    -0.61154 (  0.25%)    -0.57312
      21    235.64    -0.54726 ( 99.80%)    -0.59728 (  0.20%)    -0.54737
      22    238.98    -0.53978 ( 99.81%)    -0.59311 (  0.19%)    -0.53988
      23    255.77    -0.50401 ( 99.85%)    -0.57300 (  0.15%)    -0.50412
      24    258.31    -0.49886 ( 99.86%)    -0.57008 (  0.14%)    -0.49896
      25    268.98    -0.47786 ( 99.88%)    -0.55808 (  0.12%)    -0.47795
      26    297.15    -0.42723 ( 99.92%)    -0.52858 (  0.08%)    -0.42731
      27    297.44    -0.42673 ( 99.92%)    -0.52829 (  0.08%)    -0.42681
   ------------------------------------------------------------------------

   temp. (K)  partition function   enthalpy   heat capacity  entropy
                                   cal/mol     cal/K/mol   cal/K/mol   J/K/mol
 298.15  VIB  0.299E+14            16402.174    101.371    105.761
         ROT  0.757E+07              888.752      2.981     34.458
         INT  0.226E+21            17290.927    104.352    140.218
         TR   0.830E+28             1481.254      4.968     43.970
         TOT                       18772.1805   109.3205   184.1884   770.6441

       T/K    H(0)-H(T)+PV         H(T)/Eh          T*S/Eh         G(T)/Eh
   ------------------------------------------------------------------------
    298.15    0.299154E-01    0.528612E+00    0.875138E-01    0.441098E+00
   ------------------------------------------------------------------------

         :::::::::::::::::::::::::::::::::::::::::::::::::::::
         ::                  THERMODYNAMIC                  ::
         :::::::::::::::::::::::::::::::::::::::::::::::::::::
         :: total free energy         -83.431807795479 Eh   ::
         ::.................................................::
         :: total energy              -83.872905521353 Eh   ::
         :: zero point energy           0.498696190288 Eh   ::
         :: G(RRHO) w/o ZPVE           -0.057598464414 Eh   ::
         :: G(RRHO) contrib.            0.441097725874 Eh   ::
         :::::::::::::::::::::::::::::::::::::::::::::::::::::

           -------------------------------------------------
          | TOTAL ENERGY              -83.872905521353 Eh   |
          | TOTAL ENTHALPY            -83.344293957282 Eh   |
          | TOTAL FREE ENERGY         -83.431807795479 Eh   |
          | GRADIENT NORM               0.000253085153 Eh/α |
          | HOMO-LUMO GAP               2.358386120644 eV   |
           -------------------------------------------------

------------------------------------------------------------------------
 * finished run on 2022/05/27 at 18:11:56.566     
------------------------------------------------------------------------
 total:
 * wall-time:     0 d,  0 h,  2 min, 41.402 sec
 *  cpu-time:     0 d,  0 h,  0 min, 22.575 sec
 * ratio c/w:     0.140 speedup
 SCF:
 * wall-time:     0 d,  0 h,  0 min,  0.726 sec
 *  cpu-time:     0 d,  0 h,  0 min,  0.103 sec
 * ratio c/w:     0.142 speedup
 analytical hessian:
 * wall-time:     0 d,  0 h,  2 min, 40.461 sec
 *  cpu-time:     0 d,  0 h,  0 min, 22.432 sec
 * ratio c/w:     0.140 speedup

