 Entering Gaussian System
 *********************************************
 Gaussian 98:
 frequency output generated by the xtb code
 *********************************************
                         Standard orientation:
 --------------------------------------------------------------------
  Center     Atomic     Atomic              Coordinates (Angstroms)
  Number     Number      Type              X           Y           Z
 --------------------------------------------------------------------
    1         28             0       -0.010511   -1.505274   -0.445377
    2          7             0       -1.904323   -0.837202    0.348728
    3          6             0       -2.340918    0.371998    0.366585
    4          7             0       -3.557935    0.748583    0.835277
    5          6             0       -3.965716    2.133616    0.902443
    6          6             0       -4.264000    2.741599   -0.472489
    7          6             0       -3.000565    3.213243   -1.185655
    8          6             0       -1.999048    2.091756   -1.448475
    9          6             0       -1.440662    1.446774   -0.176085
   10          6             0       -4.575541   -0.234341    1.155237
   11          6             0       -4.236755   -1.568457    0.510646
   12          6             0       -2.781450   -1.891090    0.830257
   13          1             0       -4.863122    2.173750    1.525302
   14          1             0       -3.194506    2.725397    1.405411
   15          1             0       -4.937404    3.591831   -0.344330
   16          1             0       -4.777557    1.997017   -1.084535
   17          1             0       -2.520680    3.989234   -0.582309
   18          1             0       -3.281577    3.667022   -2.138900
   19          1             0       -2.460544    1.318260   -2.065095
   20          1             0       -1.165000    2.506111   -2.019141
   21          1             0       -0.495041    0.947395   -0.418019
   22          1             0       -1.241853    2.210154    0.579779
   23          1             0       -5.542954    0.128463    0.790390
   24          1             0       -4.646799   -0.348268    2.246659
   25          1             0       -4.349840   -1.493886   -0.573008
   26          1             0       -4.903109   -2.347869    0.878684
   27          1             0       -2.481271   -2.828254    0.355573
   28          1             0       -2.647578   -2.002670    1.914457
   29          7             0        1.397424   -0.337198    0.708751
   30          6             0        2.589714   -0.021857    0.343479
   31          7             0        3.497728    0.607939    1.129312
   32          6             0        4.852110    0.861170    0.691870
   33          6             0        4.945106    1.973433   -0.358690
   34          6             0        4.647424    1.470786   -1.768247
   35          6             0        3.244735    0.887801   -1.920737
   36          6             0        2.996964   -0.356045   -1.062571
   37          6             0        3.130305    1.148592    2.423327
   38          6             0        1.619598    1.287624    2.524942
   39          6             0        0.998127   -0.028078    2.068891
   40          1             0        5.428598    1.142453    1.576868
   41          1             0        5.293599   -0.057073    0.293309
   42          1             0        5.952857    2.393611   -0.338577
   43          1             0        4.245615    2.769716   -0.093925
   44          1             0        5.382355    0.707094   -2.035520
   45          1             0        4.765766    2.299154   -2.470861
   46          1             0        2.497890    1.645517   -1.673879
   47          1             0        3.100056    0.616605   -2.968113
   48          1             0        2.158061   -0.928156   -1.483975
   49          1             0        3.876803   -1.001830   -1.067820
   50          1             0        3.610499    2.126331    2.545030
   51          1             0        3.502241    0.487935    3.219302
   52          1             0        1.279859    2.089677    1.865416
   53          1             0        1.329817    1.528782    3.547518
   54          1             0       -0.091846    0.020285    2.105164
   55          1             0        1.319685   -0.842017    2.731495
   56          6             0       -0.456591   -1.213324   -2.138365
   57          8             0       -1.181127   -1.177933   -3.034110
   58          6             0        0.564319   -3.066956    0.181934
   59          8             0        1.311417   -3.869598    0.528496
 --------------------------------------------------------------------
     1 basis functions        1 primitive gaussians
     1 alpha electrons        1 beta electrons

 Harmonic frequencies (cm**-1), IR intensities (km*mol⁻¹),
 Raman scattering activities (A**4/amu), Raman depolarization ratios,
 reduced masses (AMU), force constants (mDyne/A) and normal coordinates:
                      1                      2                      3
                        a                      a                      a 
 Frequencies --    10.8198                20.2880                22.2336
 Red. masses --    12.4850                11.6141                12.6105
 Frc consts  --     0.0000                 0.0000                 0.0000
 IR Inten    --     0.6694                 0.4526                 0.6645
 Raman Activ --     0.0000                 0.0000                 0.0000
 Depolar     --     0.0000                 0.0000                 0.0000
 Atom AN      X      Y      Z        X      Y      Z        X      Y      Z
   1  28     0.00  -0.19   0.08    -0.06   0.02  -0.15    -0.06   0.12   0.10
   2   7     0.02  -0.01   0.02     0.02   0.04   0.00    -0.02   0.03   0.08
   3   6     0.07   0.01  -0.01     0.03   0.04  -0.03    -0.06   0.01   0.01
   4   7     0.07   0.06  -0.05     0.09   0.09   0.08    -0.12  -0.02  -0.10
   5   6     0.12   0.07  -0.06     0.08   0.09  -0.03    -0.16  -0.03  -0.14
   6   6     0.19   0.08  -0.07    -0.04  -0.05  -0.06    -0.07  -0.06  -0.17
   7   6     0.23   0.03  -0.03    -0.10  -0.10  -0.22    -0.03  -0.02  -0.07
   8   6     0.19  -0.01  -0.00    -0.11  -0.12  -0.20     0.03   0.00   0.02
   9   6     0.12  -0.03   0.02    -0.01  -0.00  -0.18    -0.05   0.03   0.06
  10   6     0.02   0.10  -0.08     0.13   0.11   0.30    -0.12  -0.05  -0.19
  11   6    -0.01   0.08  -0.06     0.02   0.07   0.33     0.00  -0.06  -0.11
  12   6    -0.04   0.03  -0.00     0.06   0.07   0.15    -0.02   0.01   0.05
  13   1     0.03   0.03  -0.03     0.04   0.04   0.01    -0.06  -0.02  -0.06
  14   1     0.04   0.01  -0.01     0.04   0.04  -0.04    -0.06  -0.00  -0.02
  15   1     0.06   0.03  -0.03    -0.01  -0.01  -0.03    -0.03  -0.02  -0.07
  16   1     0.05   0.03  -0.03    -0.02  -0.03   0.02     0.00  -0.02  -0.06
  17   1     0.07   0.00  -0.01    -0.02  -0.01  -0.10    -0.03  -0.00  -0.01
  18   1     0.08   0.01  -0.01    -0.06  -0.06  -0.07     0.01  -0.01  -0.03
  19   1     0.05   0.00  -0.00    -0.04  -0.05  -0.03     0.03  -0.00  -0.00
  20   1     0.06  -0.01   0.01    -0.05  -0.05  -0.09     0.02   0.01   0.02
  21   1     0.03  -0.02   0.01    -0.01  -0.01  -0.06    -0.01   0.01   0.04
  22   1     0.04  -0.01   0.01     0.01   0.02  -0.08    -0.03   0.01   0.02
  23   1     0.01   0.04  -0.03     0.02   0.03   0.12    -0.02  -0.03  -0.09
  24   1    -0.01   0.03  -0.02     0.08   0.05   0.09    -0.07  -0.00  -0.06
  25   1     0.01   0.02  -0.02    -0.04   0.00   0.10     0.03  -0.03  -0.04
  26   1    -0.02   0.03  -0.02     0.02   0.03   0.13    -0.00  -0.02  -0.04
  27   1    -0.02   0.00   0.00    -0.00   0.01   0.04     0.02  -0.00   0.04
  28   1    -0.02   0.01   0.00     0.06   0.03   0.04    -0.03   0.02   0.02
  29   7     0.02  -0.10   0.03    -0.05   0.01  -0.04     0.02   0.05  -0.01
  30   6    -0.02   0.00  -0.01    -0.03   0.01  -0.01     0.02   0.00  -0.04
  31   7    -0.02   0.03  -0.02    -0.02  -0.08   0.05     0.11  -0.13  -0.04
  32   6    -0.07   0.17  -0.09    -0.01  -0.08   0.08     0.10  -0.17  -0.07
  33   6    -0.24   0.23  -0.04     0.03  -0.00   0.16     0.12  -0.08   0.02
  34   6    -0.27   0.28  -0.05     0.02   0.12   0.12     0.01   0.07  -0.01
  35   6    -0.22   0.16  -0.00     0.00   0.17   0.07    -0.04   0.18   0.01
  36   6    -0.06   0.10  -0.04    -0.04   0.11  -0.03    -0.07   0.11  -0.09
  37   6     0.01  -0.09   0.04    -0.02  -0.17   0.09     0.20  -0.23   0.04
  38   6     0.01  -0.18   0.11    -0.01  -0.12   0.07     0.21  -0.12   0.12
  39   6     0.05  -0.18   0.06    -0.06  -0.06  -0.03     0.09  -0.04   0.03
  40   1    -0.01   0.05  -0.03    -0.00  -0.05   0.03     0.05  -0.08  -0.02
  41   1    -0.00   0.07  -0.05    -0.01  -0.02   0.00     0.00  -0.05  -0.05
  42   1    -0.08   0.09  -0.02     0.01  -0.01   0.06     0.05  -0.05   0.00
  43   1    -0.09   0.04   0.01     0.02  -0.00   0.07     0.06  -0.02   0.04
  44   1    -0.06   0.10  -0.04    -0.00   0.03   0.02    -0.02   0.01  -0.03
  45   1    -0.11   0.09  -0.00     0.01   0.05   0.06     0.01   0.04   0.02
  46   1    -0.08   0.02   0.02     0.01   0.05   0.04     0.01   0.06   0.04
  47   1    -0.07   0.06  -0.00    -0.00   0.08   0.01    -0.03   0.08  -0.00
  48   1    -0.01   0.01  -0.01    -0.01   0.05  -0.02    -0.04   0.06  -0.03
  49   1    -0.00   0.05  -0.03    -0.02   0.02  -0.02    -0.03   0.02  -0.06
  50   1    -0.01  -0.02   0.03     0.01  -0.06   0.05     0.08  -0.08   0.04
  51   1     0.02  -0.04  -0.01    -0.02  -0.07   0.01     0.05  -0.10  -0.01
  52   1    -0.02  -0.04   0.05     0.01  -0.02   0.04     0.07  -0.01   0.06
  53   1     0.01  -0.07   0.04    -0.00  -0.05   0.03     0.08  -0.06   0.04
  54   1     0.01  -0.07   0.03    -0.02  -0.00  -0.01     0.03   0.01   0.02
  55   1     0.03  -0.06   0.00    -0.03  -0.03  -0.02     0.01  -0.03  -0.01
  56   6    -0.00  -0.11   0.03    -0.01  -0.07  -0.09    -0.14   0.01   0.07
  57   8    -0.02  -0.14   0.05     0.04  -0.20  -0.14    -0.26  -0.03   0.16
  58   6    -0.04  -0.09   0.06     0.02   0.03  -0.07     0.08   0.10   0.07
  59   8    -0.09  -0.15   0.07     0.09   0.07  -0.14     0.23   0.26   0.11
                      4                      5                      6
                        a                      a                      a 
 Frequencies --    27.2739                35.9402                41.8127
 Red. masses --    14.9462                14.6000                14.3327
 Frc consts  --     0.0000                 0.0000                 0.0000
 IR Inten    --     0.1852                 0.7236                 0.2572
 Raman Activ --     0.0000                 0.0000                 0.0000
 Depolar     --     0.0000                 0.0000                 0.0000
 Atom AN      X      Y      Z        X      Y      Z        X      Y      Z
   1  28     0.07   0.06   0.14     0.02   0.07  -0.07     0.01   0.06   0.11
   2   7     0.05   0.05   0.14     0.00   0.01  -0.01    -0.03   0.00   0.01
   3   6     0.00   0.03   0.04    -0.02  -0.00   0.00    -0.04  -0.00   0.02
   4   7    -0.03   0.01  -0.03    -0.02  -0.02   0.03    -0.06  -0.02   0.00
   5   6    -0.09  -0.00  -0.15    -0.07  -0.03  -0.03    -0.05  -0.02   0.05
   6   6    -0.05  -0.11  -0.21    -0.09  -0.11  -0.06    -0.06   0.03   0.07
   7   6    -0.03  -0.10  -0.17    -0.11  -0.08  -0.08    -0.05   0.03   0.08
   8   6     0.04  -0.06  -0.04    -0.06  -0.04  -0.04    -0.06   0.03   0.05
   9   6    -0.01   0.03   0.03    -0.05   0.02  -0.01    -0.05   0.01   0.03
  10   6    -0.01  -0.00  -0.02     0.02  -0.04   0.09    -0.07  -0.03  -0.07
  11   6     0.07  -0.04   0.09     0.02  -0.04   0.07    -0.03  -0.02  -0.07
  12   6     0.07   0.05   0.18     0.03  -0.02   0.00    -0.04  -0.00  -0.01
  13   1    -0.04   0.00  -0.06    -0.02  -0.01  -0.01    -0.01  -0.01   0.02
  14   1    -0.04   0.02  -0.04    -0.02   0.00  -0.02    -0.01  -0.01   0.02
  15   1    -0.03  -0.04  -0.09    -0.04  -0.04  -0.03    -0.01   0.01   0.03
  16   1     0.01  -0.05  -0.05    -0.02  -0.05  -0.01    -0.02   0.02   0.02
  17   1    -0.03  -0.01  -0.06    -0.04  -0.01  -0.03    -0.01   0.00   0.03
  18   1     0.00  -0.05  -0.06    -0.04  -0.04  -0.03    -0.02   0.02   0.03
  19   1     0.03  -0.03  -0.01    -0.01  -0.02  -0.01    -0.02   0.01   0.01
  20   1     0.02  -0.02  -0.00    -0.02  -0.00  -0.01    -0.02   0.01   0.01
  21   1     0.01   0.02   0.03    -0.01   0.01   0.00    -0.02   0.00   0.00
  22   1    -0.03   0.02  -0.00    -0.02   0.01  -0.01    -0.01  -0.00   0.01
  23   1    -0.00  -0.02  -0.03    -0.00  -0.02   0.04    -0.01  -0.01  -0.03
  24   1    -0.02   0.02  -0.01     0.03  -0.01   0.03    -0.04  -0.01  -0.02
  25   1     0.03  -0.04   0.02    -0.01  -0.01   0.02     0.00  -0.00  -0.02
  26   1     0.02  -0.01   0.03     0.01  -0.01   0.03    -0.01  -0.01  -0.03
  27   1     0.04   0.01   0.08     0.01  -0.00  -0.01    -0.00  -0.00   0.00
  28   1     0.01   0.04   0.06     0.02  -0.01  -0.00    -0.02   0.00  -0.00
  29   7     0.05  -0.01   0.07     0.06  -0.04  -0.02     0.03   0.12  -0.06
  30   6     0.04   0.00   0.04     0.06  -0.04  -0.02     0.03   0.10  -0.06
  31   7     0.04   0.03   0.03     0.08  -0.07  -0.02     0.06   0.04  -0.05
  32   6     0.03   0.04   0.00     0.05   0.00  -0.06     0.08  -0.05  -0.01
  33   6    -0.01   0.02  -0.02    -0.04   0.04  -0.04     0.20  -0.01   0.04
  34   6    -0.01  -0.01  -0.01    -0.05   0.07  -0.04     0.13   0.09   0.02
  35   6    -0.00  -0.04   0.02    -0.03   0.00  -0.03     0.08   0.22   0.01
  36   6     0.03  -0.02   0.05     0.04  -0.01  -0.03    -0.00   0.17  -0.08
  37   6     0.04   0.05   0.02     0.10  -0.14   0.02     0.09   0.03  -0.03
  38   6     0.04   0.03   0.03     0.11  -0.10   0.04     0.09   0.06  -0.01
  39   6     0.05   0.01   0.06     0.06  -0.06  -0.01     0.06   0.08  -0.03
  40   1     0.01   0.02  -0.00     0.02   0.00  -0.02     0.03  -0.04   0.00
  41   1     0.01   0.01   0.00     0.02   0.01  -0.03     0.00  -0.02  -0.02
  42   1    -0.00   0.01  -0.01    -0.02   0.03  -0.02     0.07  -0.03   0.02
  43   1    -0.01   0.00  -0.01    -0.02  -0.00   0.00     0.08   0.01   0.03
  44   1    -0.00  -0.00  -0.00    -0.01   0.03  -0.02     0.02   0.01  -0.01
  45   1    -0.01  -0.01  -0.01    -0.03   0.03  -0.01     0.06   0.03   0.02
  46   1    -0.00  -0.01   0.00    -0.02  -0.01  -0.00     0.04   0.08   0.02
  47   1    -0.00  -0.02   0.01    -0.01   0.00  -0.01     0.01   0.09  -0.00
  48   1     0.01  -0.01   0.02     0.02  -0.01  -0.01    -0.01   0.07  -0.03
  49   1     0.01  -0.00   0.01     0.02   0.01  -0.02    -0.01   0.03  -0.04
  50   1     0.01   0.02  -0.00     0.04  -0.05   0.02     0.03   0.00  -0.01
  51   1     0.02   0.02   0.01     0.03  -0.06  -0.01     0.02   0.00  -0.01
  52   1     0.01   0.00   0.01     0.04  -0.02   0.02     0.03   0.02   0.00
  53   1     0.01   0.01   0.01     0.04  -0.04   0.02     0.03   0.01  -0.00
  54   1     0.02  -0.00   0.02     0.02  -0.01  -0.00     0.02   0.03  -0.00
  55   1     0.02   0.01   0.02     0.01  -0.03  -0.01     0.02   0.02  -0.02
  56   6    -0.03   0.15   0.11     0.14   0.17  -0.04     0.06  -0.15   0.00
  57   8    -0.12   0.27   0.19     0.30   0.42  -0.15     0.17  -0.48  -0.09
  58   6    -0.06  -0.10  -0.16    -0.16   0.03   0.12    -0.14  -0.03   0.04
  59   8    -0.20  -0.38  -0.51    -0.39  -0.02   0.47    -0.44  -0.33  -0.06
                      7                      8                      9
                        a                      a                      a 
 Frequencies --    46.8833                58.2509                62.8541
 Red. masses --    15.9943                12.6250                 9.6707
 Frc consts  --     0.0000                 0.0000                 0.0000
 IR Inten    --     0.1700                 0.2413                 0.1349
 Raman Activ --     0.0000                 0.0000                 0.0000
 Depolar     --     0.0000                 0.0000                 0.0000
 Atom AN      X      Y      Z        X      Y      Z        X      Y      Z
   1  28     0.13  -0.15  -0.11     0.22   0.03   0.03    -0.02  -0.13  -0.06
   2   7     0.04  -0.05  -0.10     0.05   0.06  -0.16     0.12   0.03   0.17
   3   6     0.06  -0.04  -0.06     0.02   0.04  -0.13     0.05   0.01  -0.02
   4   7     0.09  -0.03  -0.01     0.04   0.01  -0.06     0.02  -0.01  -0.09
   5   6     0.10  -0.02   0.02     0.05   0.01   0.08     0.05  -0.00   0.07
   6   6     0.05  -0.01   0.03    -0.12   0.09   0.15    -0.03   0.15   0.15
   7   6     0.02  -0.02  -0.02    -0.20   0.08   0.01    -0.06   0.09   0.07
   8   6    -0.00  -0.03  -0.07    -0.24   0.07  -0.14    -0.16   0.02  -0.06
   9   6     0.05  -0.04  -0.09    -0.06   0.07  -0.22    -0.01   0.01  -0.13
  10   6     0.10  -0.02   0.06     0.05  -0.00  -0.08    -0.10   0.03  -0.35
  11   6     0.03  -0.01  -0.00     0.07   0.02  -0.11     0.17  -0.09   0.03
  12   6     0.04  -0.05  -0.10     0.07   0.04  -0.13     0.14   0.13   0.43
  13   1     0.04  -0.00   0.02     0.03  -0.01   0.05     0.03  -0.01   0.04
  14   1     0.04  -0.01  -0.00     0.03  -0.01   0.01     0.03  -0.02   0.02
  15   1     0.02  -0.00   0.02    -0.02   0.03   0.08     0.02   0.06   0.09
  16   1     0.00  -0.00   0.02    -0.07   0.04   0.05    -0.05   0.07   0.04
  17   1     0.02  -0.01  -0.01    -0.03   0.02  -0.01     0.01   0.01   0.02
  18   1    -0.00  -0.01  -0.00    -0.09   0.03   0.01    -0.03   0.04   0.03
  19   1    -0.01  -0.01  -0.01    -0.10   0.02  -0.02    -0.09   0.01   0.00
  20   1    -0.01  -0.01  -0.03    -0.09   0.02  -0.08    -0.06  -0.01  -0.05
  21   1     0.01  -0.01  -0.04    -0.02   0.03  -0.10    -0.01   0.00  -0.07
  22   1     0.02  -0.01  -0.03     0.01   0.02  -0.07     0.02   0.00  -0.04
  23   1     0.02  -0.00   0.04     0.01  -0.00  -0.02     0.01  -0.01  -0.24
  24   1     0.06  -0.01   0.02     0.02  -0.01  -0.02    -0.16   0.07  -0.10
  25   1    -0.01   0.01   0.00     0.02   0.01  -0.03     0.12  -0.11  -0.00
  26   1     0.01  -0.00   0.00     0.02  -0.00  -0.04     0.05  -0.02   0.02
  27   1    -0.00  -0.01  -0.05     0.02   0.01  -0.04     0.09  -0.01   0.25
  28   1     0.03  -0.03  -0.03     0.03   0.01  -0.04    -0.02   0.17   0.15
  29   7    -0.02   0.04  -0.08     0.01   0.08   0.06    -0.00  -0.08  -0.06
  30   6    -0.02   0.06  -0.05     0.04  -0.02   0.09    -0.01  -0.03  -0.04
  31   7    -0.05   0.05  -0.02     0.08  -0.07   0.09    -0.04  -0.02  -0.02
  32   6    -0.00  -0.03   0.06     0.02   0.05  -0.02    -0.03  -0.01   0.03
  33   6     0.14  -0.01   0.10    -0.17   0.05  -0.04     0.00   0.01   0.05
  34   6     0.14   0.06   0.08    -0.14  -0.01  -0.03     0.03   0.03   0.04
  35   6     0.10   0.17   0.02    -0.08  -0.16   0.00     0.04   0.03  -0.00
  36   6    -0.01   0.13  -0.06     0.04  -0.11   0.10     0.02   0.00  -0.04
  37   6    -0.08   0.08  -0.04     0.13  -0.22   0.16    -0.08   0.02  -0.04
  38   6    -0.09   0.03  -0.07     0.15   0.02   0.11    -0.09  -0.06  -0.06
  39   6    -0.03   0.00  -0.07    -0.06   0.16   0.02    -0.01  -0.10  -0.05
  40   1    -0.01  -0.03   0.03     0.02   0.03  -0.02    -0.02  -0.01   0.01
  41   1    -0.01  -0.01   0.02     0.03   0.03  -0.01    -0.00  -0.00   0.01
  42   1     0.05  -0.03   0.04    -0.06   0.05  -0.02     0.00   0.00   0.02
  43   1     0.06   0.01   0.03    -0.08  -0.01  -0.01    -0.00   0.00   0.01
  44   1     0.03   0.00   0.02    -0.02   0.02  -0.01     0.01   0.01   0.01
  45   1     0.06   0.02   0.03    -0.07  -0.00  -0.01     0.01   0.01   0.01
  46   1     0.04   0.06   0.02    -0.05  -0.06  -0.02     0.01   0.01   0.00
  47   1     0.03   0.07   0.00    -0.01  -0.08   0.01     0.02   0.02  -0.00
  48   1    -0.01   0.06  -0.03     0.02  -0.06   0.05     0.01   0.00  -0.02
  49   1    -0.01   0.02  -0.02     0.02  -0.01   0.04     0.01   0.00  -0.01
  50   1    -0.03   0.03  -0.02     0.08  -0.09   0.10    -0.04   0.02  -0.02
  51   1    -0.02   0.03  -0.00    -0.01  -0.12   0.02    -0.02   0.02  -0.00
  52   1    -0.03   0.00  -0.02     0.09   0.04   0.04    -0.04  -0.03  -0.02
  53   1    -0.03   0.01  -0.02     0.04   0.00   0.03    -0.03  -0.02  -0.02
  54   1    -0.01  -0.01  -0.02    -0.02   0.11  -0.03    -0.00  -0.05  -0.01
  55   1     0.00   0.00  -0.02    -0.09   0.02   0.01     0.01  -0.02  -0.02
  56   6    -0.16   0.01   0.02     0.03  -0.05   0.02    -0.01  -0.02  -0.02
  57   8    -0.53   0.21   0.32    -0.16  -0.12   0.18     0.05   0.10  -0.06
  58   6    -0.01  -0.05   0.05     0.04  -0.01   0.01    -0.00  -0.04   0.02
  59   8    -0.21  -0.15   0.28    -0.04  -0.11  -0.02     0.01   0.00   0.09
                     10                     11                     12
                        a                      a                      a 
 Frequencies --    71.4686                79.1744                85.9481
 Red. masses --    19.3428                12.0058                 9.8042
 Frc consts  --     0.0000                 0.0000                 0.0000
 IR Inten    --     1.3585                 0.5747                 0.9923
 Raman Activ --     0.0000                 0.0000                 0.0000
 Depolar     --     0.0000                 0.0000                 0.0000
 Atom AN      X      Y      Z        X      Y      Z        X      Y      Z
   1  28    -0.03  -0.25   0.31     0.03   0.05  -0.17    -0.02   0.03  -0.01
   2   7    -0.11  -0.09  -0.07     0.09  -0.07   0.04    -0.03  -0.08   0.02
   3   6    -0.04  -0.06  -0.06     0.07  -0.07  -0.01    -0.01  -0.06  -0.01
   4   7    -0.01   0.00  -0.04     0.06  -0.08  -0.05    -0.01  -0.03  -0.04
   5   6     0.10   0.03   0.05     0.05  -0.08  -0.03     0.05  -0.02   0.00
   6   6     0.03   0.10   0.09     0.14  -0.03  -0.03     0.07   0.04   0.02
   7   6     0.00  -0.03  -0.04     0.18   0.01   0.06     0.09  -0.02   0.01
   8   6    -0.12  -0.13  -0.11     0.17   0.01   0.04     0.02  -0.07  -0.02
   9   6    -0.03  -0.11  -0.14     0.09  -0.06   0.04     0.01  -0.09  -0.03
  10   6    -0.06   0.06  -0.02     0.06  -0.08  -0.03    -0.03  -0.00  -0.02
  11   6    -0.15   0.05  -0.05     0.11  -0.13   0.09    -0.04  -0.04   0.05
  12   6    -0.16  -0.04  -0.07     0.12  -0.05   0.13    -0.04  -0.04   0.07
  13   1     0.04   0.02   0.04     0.00  -0.03  -0.03     0.01   0.00  -0.00
  14   1     0.05  -0.01   0.00     0.01  -0.03   0.01     0.02  -0.02   0.01
  15   1     0.04   0.05   0.05     0.04  -0.01  -0.01     0.04   0.02   0.02
  16   1    -0.04   0.05   0.04     0.05  -0.00  -0.03     0.00   0.03   0.00
  17   1     0.04  -0.02  -0.03     0.05  -0.01   0.04     0.04  -0.02   0.01
  18   1    -0.01  -0.01  -0.00     0.07   0.02   0.02     0.03   0.01   0.01
  19   1    -0.08  -0.03  -0.01     0.05   0.02  -0.01    -0.01  -0.01  -0.00
  20   1    -0.04  -0.06  -0.07     0.06   0.01   0.03     0.01  -0.03  -0.01
  21   1    -0.02  -0.04  -0.06     0.03  -0.02   0.01    -0.00  -0.03  -0.01
  22   1     0.01  -0.03  -0.05     0.02  -0.03   0.02     0.01  -0.03  -0.01
  23   1    -0.01   0.04   0.00     0.02  -0.04  -0.03    -0.00  -0.00  -0.02
  24   1    -0.01   0.01  -0.01     0.00  -0.00  -0.01    -0.02   0.01  -0.00
  25   1    -0.05   0.02  -0.01     0.04  -0.06   0.02    -0.01  -0.03   0.01
  26   1    -0.05   0.03  -0.02     0.04  -0.03   0.04    -0.01  -0.00   0.03
  27   1    -0.06  -0.01  -0.03     0.04  -0.03   0.06    -0.02  -0.02   0.04
  28   1    -0.04  -0.02  -0.02     0.03   0.02   0.04    -0.01   0.01   0.02
  29   7    -0.05   0.08  -0.00    -0.19   0.21   0.06    -0.06   0.13   0.00
  30   6    -0.04   0.03  -0.03    -0.14   0.04   0.05    -0.09   0.21  -0.02
  31   7     0.00  -0.01  -0.05    -0.05  -0.07   0.04    -0.13   0.36  -0.08
  32   6     0.02  -0.11  -0.06    -0.05  -0.16  -0.03    -0.07   0.20  -0.00
  33   6     0.10  -0.07   0.00    -0.03  -0.14  -0.00     0.09   0.01  -0.19
  34   6    -0.03   0.05  -0.01    -0.18  -0.04  -0.01     0.21  -0.21  -0.13
  35   6    -0.08   0.16   0.04    -0.22   0.05   0.07     0.15  -0.05  -0.15
  36   6    -0.09   0.10  -0.06    -0.21   0.03   0.04    -0.06   0.11   0.01
  37   6     0.05   0.00  -0.04     0.03  -0.05   0.05    -0.00  -0.20   0.18
  38   6     0.06   0.10  -0.04     0.05   0.23  -0.00     0.01  -0.17   0.32
  39   6    -0.02   0.12  -0.01    -0.18   0.33   0.02    -0.09  -0.02   0.03
  40   1     0.02  -0.06  -0.01     0.01  -0.07  -0.02    -0.04   0.10  -0.00
  41   1    -0.02  -0.04  -0.03    -0.04  -0.05  -0.02    -0.02   0.03   0.06
  42   1     0.04  -0.05  -0.01     0.00  -0.07  -0.02     0.03  -0.02  -0.04
  43   1     0.06   0.00   0.02     0.02  -0.02   0.02     0.03   0.03  -0.12
  44   1    -0.03   0.01  -0.03    -0.07  -0.02  -0.03     0.04  -0.10   0.03
  45   1    -0.00   0.03   0.01    -0.05  -0.00   0.01     0.11  -0.10  -0.08
  46   1    -0.00   0.06   0.05    -0.05   0.02   0.05     0.07   0.02  -0.09
  47   1    -0.05   0.08   0.01    -0.09   0.03   0.02     0.05  -0.06  -0.03
  48   1    -0.03   0.04  -0.02    -0.07   0.02   0.02    -0.03   0.04   0.01
  49   1    -0.03   0.02  -0.04    -0.06   0.00  -0.01    -0.04   0.00   0.04
  50   1     0.03  -0.01  -0.01     0.06  -0.04   0.03     0.01  -0.08   0.16
  51   1     0.00  -0.01  -0.01    -0.04  -0.05   0.01     0.00  -0.16  -0.03
  52   1     0.03   0.03  -0.01     0.07   0.08  -0.01     0.00   0.01   0.16
  53   1     0.02   0.04  -0.01     0.02   0.09  -0.00     0.02  -0.12   0.12
  54   1    -0.01   0.06  -0.00    -0.05   0.16  -0.01    -0.03   0.03  -0.01
  55   1    -0.02   0.03   0.00    -0.11   0.09   0.02    -0.07  -0.05  -0.03
  56   6     0.11  -0.02   0.12     0.00   0.06  -0.08    -0.01   0.03  -0.01
  57   8     0.28   0.39   0.04     0.03   0.02  -0.12     0.01   0.06  -0.03
  58   6     0.08  -0.09   0.12     0.03   0.04  -0.07     0.02   0.02  -0.00
  59   8     0.23  -0.10  -0.15    -0.11  -0.03   0.06    -0.03  -0.02  -0.01
                     13                     14                     15
                        a                      a                      a 
 Frequencies --    87.7243                90.6103               102.0921
 Red. masses --    10.8561                12.3788                13.8427
 Frc consts  --     0.0000                 0.0000                 0.0000
 IR Inten    --     0.4230                 0.3637                 0.3367
 Raman Activ --     0.0000                 0.0000                 0.0000
 Depolar     --     0.0000                 0.0000                 0.0000
 Atom AN      X      Y      Z        X      Y      Z        X      Y      Z
   1  28    -0.01   0.11  -0.09    -0.11   0.18  -0.07     0.05   0.26  -0.11
   2   7     0.07   0.00   0.06    -0.13  -0.17   0.08    -0.07  -0.11  -0.07
   3   6     0.13   0.02   0.16    -0.06  -0.13   0.04    -0.05  -0.10  -0.12
   4   7     0.20   0.04   0.32    -0.04  -0.05   0.02    -0.06  -0.06  -0.18
   5   6     0.17   0.04   0.16     0.09  -0.01   0.04     0.06  -0.03  -0.01
   6   6    -0.01  -0.20   0.09     0.13   0.04   0.05     0.06   0.16   0.07
   7   6    -0.11  -0.28  -0.14     0.16  -0.12  -0.01     0.07   0.02   0.00
   8   6    -0.04  -0.25  -0.01     0.02  -0.24  -0.01    -0.10  -0.11  -0.12
   9   6     0.09   0.00   0.07     0.01  -0.21   0.00    -0.04  -0.14  -0.17
  10   6    -0.02   0.08  -0.20    -0.14   0.04  -0.04    -0.02  -0.03   0.01
  11   6     0.03   0.16  -0.32    -0.17  -0.01   0.04    -0.07  -0.08   0.09
  12   6    -0.05   0.05  -0.06    -0.20  -0.07   0.12    -0.05  -0.08   0.01
  13   1     0.07   0.03   0.08     0.03   0.02   0.01     0.02  -0.01   0.00
  14   1     0.07   0.03  -0.01     0.04  -0.02   0.01     0.03  -0.04   0.01
  15   1    -0.01  -0.06   0.00     0.07   0.04   0.02     0.06   0.08   0.06
  16   1    -0.02  -0.09   0.08     0.00   0.03   0.02    -0.03   0.09   0.01
  17   1    -0.03  -0.03  -0.11     0.08  -0.05  -0.01     0.07  -0.02   0.00
  18   1    -0.07  -0.15  -0.06     0.05  -0.03  -0.00     0.02   0.03   0.01
  19   1    -0.00  -0.11   0.05    -0.03  -0.06   0.02    -0.08  -0.02  -0.02
  20   1    -0.03  -0.08  -0.04     0.01  -0.10  -0.02    -0.04  -0.06  -0.07
  21   1     0.03   0.01   0.03    -0.01  -0.08   0.00    -0.02  -0.05  -0.06
  22   1     0.02   0.04  -0.01     0.02  -0.05  -0.01     0.01  -0.04  -0.05
  23   1     0.04   0.07  -0.13    -0.02   0.03  -0.05    -0.02  -0.02   0.02
  24   1    -0.11  -0.03  -0.07    -0.07   0.03  -0.01     0.02   0.02   0.01
  25   1     0.08   0.09  -0.10    -0.03  -0.02   0.01    -0.04  -0.05   0.03
  26   1    -0.03   0.04  -0.17    -0.07   0.01   0.02    -0.01  -0.01   0.06
  27   1    -0.01   0.01   0.00    -0.07  -0.04   0.06    -0.03  -0.03   0.00
  28   1    -0.07   0.02  -0.01    -0.07   0.00   0.04     0.01  -0.02   0.00
  29   7    -0.04   0.01   0.08     0.09   0.07  -0.11     0.08  -0.10   0.22
  30   6    -0.05   0.02   0.04     0.14  -0.03  -0.01     0.02  -0.03   0.11
  31   7    -0.03   0.04   0.01     0.14  -0.11   0.07     0.05   0.05   0.04
  32   6    -0.02  -0.03  -0.01     0.09   0.09   0.04     0.04  -0.03  -0.01
  33   6     0.03  -0.06  -0.03    -0.12   0.16   0.10     0.08  -0.07  -0.05
  34   6    -0.04  -0.06  -0.02     0.04   0.14   0.07    -0.08  -0.06  -0.02
  35   6    -0.07   0.01   0.03     0.14  -0.09  -0.03    -0.13   0.02   0.11
  36   6    -0.09   0.02   0.03     0.21  -0.07   0.02    -0.07  -0.01   0.08
  37   6     0.00   0.07   0.00     0.06  -0.09   0.04     0.07   0.25  -0.04
  38   6     0.00   0.02   0.06     0.07   0.10  -0.12     0.06  -0.03   0.12
  39   6     0.02  -0.00   0.09    -0.02   0.15  -0.15     0.22  -0.16   0.26
  40   1    -0.00  -0.01  -0.00     0.02   0.03   0.01     0.02  -0.01  -0.01
  41   1    -0.02  -0.02   0.00     0.06   0.05  -0.01    -0.00  -0.02   0.00
  42   1     0.02  -0.04  -0.02    -0.06   0.11   0.04     0.04  -0.05  -0.04
  43   1     0.03  -0.00  -0.01    -0.09   0.00   0.03     0.06   0.00  -0.01
  44   1    -0.02  -0.03  -0.01     0.05   0.08   0.03    -0.04  -0.03  -0.03
  45   1    -0.00  -0.02  -0.01    -0.02   0.05   0.03    -0.03  -0.02  -0.01
  46   1    -0.01   0.01   0.02     0.00  -0.05  -0.05    -0.02   0.01   0.07
  47   1    -0.04   0.01   0.01     0.09  -0.05  -0.01    -0.08   0.02   0.03
  48   1    -0.03   0.01   0.01     0.08  -0.04   0.00    -0.03   0.00   0.04
  49   1    -0.03  -0.00   0.00     0.08  -0.00   0.02    -0.02  -0.00   0.00
  50   1    -0.01   0.03  -0.02     0.05  -0.04   0.03    -0.03   0.11  -0.09
  51   1     0.02   0.03   0.00    -0.03  -0.05   0.02     0.09   0.15   0.02
  52   1    -0.02   0.00   0.02     0.07   0.03  -0.05    -0.05  -0.04   0.03
  53   1     0.01   0.00   0.02    -0.00   0.05  -0.05     0.04  -0.01   0.04
  54   1     0.01  -0.01   0.04    -0.01   0.08  -0.08     0.06  -0.10   0.12
  55   1     0.02   0.00   0.02    -0.05   0.04  -0.03     0.14  -0.02   0.07
  56   6    -0.02   0.07  -0.04    -0.08   0.06  -0.02     0.01   0.12  -0.06
  57   8    -0.02  -0.03  -0.05    -0.12  -0.01  -0.01    -0.08  -0.08  -0.01
  58   6    -0.01   0.04  -0.07    -0.03   0.08  -0.04    -0.03   0.07  -0.11
  59   8    -0.06   0.05   0.02    -0.07   0.07  -0.02    -0.10   0.09   0.01
                     16                     17                     18
                        a                      a                      a 
 Frequencies --   160.2251               167.3984               172.1384
 Red. masses --    14.0427                 8.7715                36.7008
 Frc consts  --     0.0000                 0.0000                 0.0000
 IR Inten    --     0.1793                 0.8369                 0.7306
 Raman Activ --     0.0000                 0.0000                 0.0000
 Depolar     --     0.0000                 0.0000                 0.0000
 Atom AN      X      Y      Z        X      Y      Z        X      Y      Z
   1  28     0.03   0.24   0.21     0.01  -0.03  -0.03    -0.68  -0.28  -0.01
   2   7     0.14   0.06   0.18     0.07   0.07   0.19     0.11   0.04   0.02
   3   6     0.07   0.03   0.10     0.01   0.04   0.13     0.08   0.02  -0.02
   4   7    -0.05  -0.01  -0.18    -0.09   0.03  -0.13     0.05  -0.02  -0.08
   5   6    -0.03  -0.01  -0.03    -0.09   0.03  -0.03     0.02  -0.04  -0.01
   6   6     0.05   0.22   0.05    -0.00   0.20   0.02     0.01   0.02   0.01
   7   6     0.10  -0.05  -0.06     0.05  -0.04  -0.05    -0.00   0.01  -0.01
   8   6    -0.10  -0.23  -0.02    -0.10  -0.18   0.04    -0.02  -0.00  -0.04
   9   6     0.02   0.04   0.06    -0.01   0.05   0.12     0.05   0.03  -0.05
  10   6     0.14  -0.11   0.05     0.05  -0.05   0.05     0.15  -0.09   0.02
  11   6     0.15  -0.04  -0.11     0.06   0.01  -0.06     0.15  -0.04  -0.09
  12   6     0.13  -0.07  -0.11     0.05  -0.02  -0.05     0.14  -0.03  -0.07
  13   1    -0.03  -0.02  -0.03    -0.04  -0.01  -0.03     0.00  -0.02  -0.01
  14   1    -0.02  -0.02   0.03    -0.04  -0.00   0.03     0.00  -0.01   0.00
  15   1     0.09   0.11   0.06     0.06   0.10   0.04     0.01   0.01   0.02
  16   1    -0.06   0.12   0.01    -0.06   0.11   0.00    -0.01   0.02   0.00
  17   1     0.08  -0.02  -0.05     0.05  -0.01  -0.04     0.01  -0.00  -0.00
  18   1     0.03  -0.02  -0.02     0.02  -0.02  -0.02    -0.01   0.01   0.00
  19   1    -0.09  -0.09   0.07    -0.07  -0.08   0.08    -0.02  -0.00   0.00
  20   1    -0.05  -0.14  -0.08    -0.04  -0.11  -0.05    -0.02  -0.01  -0.03
  21   1     0.02   0.03   0.04     0.01   0.03   0.06     0.02   0.02  -0.02
  22   1    -0.02   0.05  -0.01    -0.03   0.05   0.01     0.01   0.02  -0.02
  23   1     0.00  -0.06   0.09    -0.01  -0.03   0.07     0.02  -0.04   0.05
  24   1     0.12  -0.06   0.02     0.07  -0.03   0.02     0.09  -0.05   0.01
  25   1     0.05   0.03  -0.03     0.03   0.04  -0.02     0.05   0.02  -0.03
  26   1     0.04  -0.02  -0.07     0.01  -0.01  -0.05     0.04  -0.02  -0.05
  27   1     0.05   0.01  -0.09     0.02   0.02  -0.06     0.05   0.00  -0.04
  28   1     0.03  -0.10  -0.04     0.00  -0.07  -0.02     0.04  -0.04  -0.02
  29   7    -0.12   0.11  -0.10     0.12  -0.21   0.02     0.05   0.04   0.09
  30   6    -0.10   0.04  -0.10     0.09  -0.11   0.04     0.04   0.04   0.07
  31   7    -0.06  -0.19   0.02    -0.02   0.22  -0.09     0.09   0.05   0.04
  32   6    -0.08  -0.12  -0.01     0.04   0.12   0.02     0.07   0.08   0.00
  33   6    -0.19  -0.02   0.08     0.23  -0.02  -0.10     0.01   0.10   0.02
  34   6     0.04  -0.01   0.03    -0.07   0.00  -0.05     0.07   0.04   0.04
  35   6     0.08  -0.05  -0.18    -0.14   0.09   0.21     0.09  -0.02   0.03
  36   6    -0.10   0.04  -0.11     0.12  -0.07   0.05     0.03   0.01   0.07
  37   6    -0.07   0.00  -0.06    -0.07  -0.15   0.05     0.15   0.09   0.04
  38   6    -0.07  -0.06   0.01    -0.07   0.02  -0.15     0.16   0.09   0.08
  39   6    -0.01  -0.07  -0.03    -0.13   0.03  -0.11     0.11   0.10   0.10
  40   1    -0.01  -0.06  -0.00    -0.02   0.07   0.01     0.02   0.02  -0.00
  41   1    -0.03  -0.02  -0.04     0.02   0.02   0.06     0.02   0.03  -0.01
  42   1    -0.08   0.05   0.06     0.11  -0.10  -0.07    -0.00   0.05   0.01
  43   1    -0.11  -0.05   0.02     0.15   0.06  -0.02    -0.01   0.02   0.00
  44   1     0.03   0.01   0.04    -0.05  -0.01  -0.06     0.03   0.02   0.03
  45   1     0.03  -0.00   0.01    -0.04   0.00  -0.02     0.01   0.00  -0.00
  46   1     0.01  -0.01  -0.12    -0.01   0.01   0.17     0.02  -0.01  -0.01
  47   1     0.09  -0.05  -0.05    -0.13   0.09   0.06     0.04  -0.02   0.01
  48   1    -0.04   0.04  -0.04     0.06  -0.06   0.01     0.00   0.01   0.03
  49   1    -0.05  -0.02  -0.02     0.07   0.03  -0.00     0.00  -0.01   0.02
  50   1    -0.03   0.01  -0.06     0.02  -0.08   0.12     0.04   0.03  -0.01
  51   1     0.00   0.04   0.00    -0.09  -0.13  -0.02     0.05   0.03   0.01
  52   1    -0.04  -0.02   0.02     0.03  -0.00  -0.08     0.04   0.03   0.03
  53   1    -0.01  -0.03   0.01    -0.05   0.04  -0.06     0.05   0.02   0.03
  54   1    -0.00  -0.05   0.03    -0.04   0.05  -0.10     0.03   0.04   0.04
  55   1     0.04  -0.03  -0.04    -0.11   0.02   0.02     0.03   0.03   0.03
  56   6    -0.01   0.04   0.09    -0.02   0.07   0.01    -0.17  -0.05  -0.04
  57   8     0.08  -0.02   0.03    -0.01  -0.05  -0.01    -0.05   0.06  -0.16
  58   6    -0.00   0.09   0.06    -0.05  -0.05  -0.09    -0.09  -0.04  -0.00
  59   8    -0.05   0.01  -0.04     0.00   0.05   0.03    -0.00   0.04  -0.03
                     19                     20                     21
                        a                      a                      a 
 Frequencies --   180.4524               213.7796               234.5744
 Red. masses --    26.4549                15.3374                 9.5064
 Frc consts  --     0.0000                 0.0000                 0.0000
 IR Inten    --     0.0389                 1.7579                 0.2527
 Raman Activ --     0.0000                 0.0000                 0.0000
 Depolar     --     0.0000                 0.0000                 0.0000
 Atom AN      X      Y      Z        X      Y      Z        X      Y      Z
   1  28     0.25  -0.37  -0.35     0.13   0.07  -0.21     0.06  -0.05  -0.08
   2   7    -0.03   0.05   0.14    -0.00   0.04   0.03    -0.02   0.04  -0.12
   3   6    -0.06   0.05   0.14    -0.03   0.03   0.05    -0.01   0.03   0.00
   4   7    -0.14   0.08  -0.06    -0.04   0.01   0.05    -0.03   0.00  -0.01
   5   6    -0.14   0.09  -0.04    -0.07   0.00   0.01    -0.00   0.01   0.04
   6   6    -0.08   0.17  -0.02     0.02   0.02  -0.01     0.01   0.04   0.05
   7   6    -0.02  -0.01  -0.04     0.06  -0.03   0.02    -0.00  -0.06  -0.06
   8   6    -0.09  -0.10   0.10    -0.01  -0.07   0.00     0.03  -0.05   0.04
   9   6    -0.07   0.06   0.18    -0.00  -0.02   0.02     0.00   0.06   0.10
  10   6    -0.10   0.08   0.04    -0.01  -0.03   0.01    -0.05   0.01  -0.06
  11   6    -0.10   0.09   0.03     0.03  -0.01  -0.02    -0.01  -0.07   0.10
  12   6    -0.10   0.04   0.02     0.03   0.01   0.01     0.04   0.02  -0.05
  13   1    -0.05   0.02  -0.03    -0.04  -0.00  -0.02    -0.00  -0.00   0.01
  14   1    -0.05   0.02   0.01    -0.03   0.00   0.02    -0.00  -0.01   0.02
  15   1     0.02   0.08   0.01     0.02   0.01  -0.01     0.03   0.03   0.03
  16   1    -0.06   0.08  -0.01     0.00   0.01  -0.01    -0.03   0.03   0.03
  17   1     0.01   0.01  -0.03     0.03  -0.02   0.02     0.00   0.01  -0.05
  18   1     0.01  -0.03  -0.03     0.03   0.01   0.01    -0.02  -0.06  -0.03
  19   1    -0.05  -0.05   0.07    -0.02  -0.02   0.02     0.02  -0.03   0.03
  20   1    -0.03  -0.07  -0.00    -0.00  -0.04  -0.01     0.01  -0.02   0.01
  21   1    -0.01   0.03   0.08    -0.01  -0.02   0.01     0.01   0.03   0.05
  22   1    -0.05   0.04   0.04     0.01   0.00  -0.00    -0.03   0.03   0.03
  23   1    -0.04   0.02   0.03    -0.01  -0.02   0.00    -0.00  -0.01  -0.06
  24   1    -0.01   0.03   0.01    -0.01  -0.02   0.00    -0.05   0.03  -0.02
  25   1    -0.03   0.03   0.01     0.02   0.01  -0.01    -0.05  -0.07   0.03
  26   1    -0.03   0.02   0.00     0.01  -0.01  -0.02     0.02  -0.01   0.09
  27   1    -0.03   0.02  -0.01     0.02   0.01   0.00     0.01   0.01  -0.02
  28   1    -0.03  -0.02   0.00     0.00   0.00   0.00     0.05   0.01  -0.02
  29   7    -0.03   0.11   0.05     0.01   0.07  -0.04     0.05  -0.21   0.20
  30   6    -0.02   0.07   0.04     0.04   0.01   0.03    -0.03  -0.01   0.05
  31   7     0.05  -0.04   0.06     0.03   0.02   0.04     0.03  -0.07   0.04
  32   6     0.02  -0.02  -0.00     0.03   0.01   0.04    -0.02   0.09  -0.02
  33   6    -0.07   0.03   0.04     0.03  -0.04  -0.02    -0.14   0.11  -0.02
  34   6     0.03  -0.00   0.03    -0.07  -0.01  -0.01     0.16  -0.14   0.02
  35   6     0.05  -0.03  -0.04    -0.07  -0.02   0.05     0.06   0.13  -0.04
  36   6    -0.05   0.04   0.03     0.05  -0.04   0.05    -0.22   0.16  -0.06
  37   6     0.10   0.10   0.02     0.01   0.06   0.02     0.03  -0.14   0.06
  38   6     0.10   0.06   0.11    -0.00  -0.03   0.07     0.05   0.14  -0.22
  39   6     0.08   0.07   0.09     0.01  -0.01  -0.02     0.06   0.00   0.15
  40   1     0.02  -0.02  -0.01     0.00   0.02   0.01    -0.00   0.03  -0.01
  41   1    -0.00   0.00  -0.02     0.01  -0.00   0.03     0.01   0.04  -0.02
  42   1    -0.03   0.04   0.02     0.02  -0.03  -0.02    -0.07   0.10   0.03
  43   1    -0.05  -0.02   0.01     0.03   0.01   0.00    -0.11  -0.02  -0.05
  44   1     0.02   0.00   0.03    -0.02  -0.00  -0.02     0.02  -0.10   0.11
  45   1     0.01  -0.00   0.00    -0.03   0.00   0.00     0.14  -0.10  -0.05
  46   1     0.01  -0.00  -0.05    -0.02  -0.01   0.04     0.06   0.09  -0.03
  47   1     0.04  -0.04  -0.01    -0.04   0.00   0.02     0.01   0.04  -0.01
  48   1    -0.03   0.03   0.02     0.02  -0.03   0.02    -0.11   0.12  -0.02
  49   1    -0.03  -0.01   0.01     0.03   0.01   0.01    -0.11  -0.02  -0.06
  50   1     0.02   0.04  -0.04    -0.02   0.03  -0.01     0.07  -0.08   0.07
  51   1     0.06   0.06   0.02     0.02   0.04   0.01    -0.07  -0.09   0.01
  52   1     0.01   0.02   0.05    -0.02   0.01   0.05     0.08  -0.03  -0.18
  53   1     0.05   0.00   0.04     0.01  -0.04   0.03    -0.03   0.17  -0.11
  54   1     0.02   0.02   0.05     0.00  -0.00  -0.00     0.02  -0.01   0.04
  55   1     0.04   0.01   0.01     0.01  -0.01  -0.02     0.04   0.05   0.09
  56   6    -0.10   0.00  -0.09    -0.04  -0.57  -0.14     0.19  -0.10  -0.07
  57   8    -0.04   0.02  -0.16    -0.09   0.23  -0.09    -0.02   0.02   0.11
  58   6     0.24  -0.11  -0.12    -0.20   0.16   0.53    -0.28  -0.09   0.03
  59   8     0.08  -0.19   0.15    -0.01   0.02  -0.24     0.01   0.17  -0.07
                     22                     23                     24
                        a                      a                      a 
 Frequencies --   237.0296               244.6892               260.6006
 Red. masses --     8.9485                11.4848                10.7484
 Frc consts  --     0.0000                 0.0000                 0.0000
 IR Inten    --     0.6502                 3.2814                 1.6215
 Raman Activ --     0.0000                 0.0000                 0.0000
 Depolar     --     0.0000                 0.0000                 0.0000
 Atom AN      X      Y      Z        X      Y      Z        X      Y      Z
   1  28    -0.07  -0.07  -0.01    -0.10   0.12   0.09     0.11   0.07  -0.03
   2   7    -0.02   0.05  -0.24     0.00  -0.02  -0.09     0.07  -0.14   0.27
   3   6     0.01   0.04  -0.01     0.05  -0.01  -0.04     0.10  -0.11   0.01
   4   7    -0.02  -0.01  -0.08     0.01  -0.02  -0.18     0.01  -0.02  -0.37
   5   6     0.06   0.01   0.07     0.14   0.00   0.04     0.19   0.00  -0.07
   6   6     0.02   0.09   0.12    -0.04   0.04   0.10    -0.18   0.01   0.03
   7   6    -0.04  -0.12  -0.16    -0.13  -0.07  -0.14    -0.23  -0.01  -0.05
   8   6     0.09  -0.06   0.09     0.10   0.06   0.09     0.05   0.16   0.16
   9   6     0.02   0.14   0.21     0.05   0.07   0.12     0.10  -0.08   0.04
  10   6    -0.07   0.02  -0.14    -0.01   0.04  -0.11     0.08   0.07   0.02
  11   6    -0.02  -0.14   0.21    -0.04  -0.09   0.14    -0.06   0.08  -0.05
  12   6     0.09   0.01  -0.11     0.02  -0.04  -0.09    -0.12  -0.09   0.07
  13   1     0.02   0.00   0.03     0.07   0.01   0.06     0.12   0.02   0.07
  14   1     0.03  -0.02   0.03     0.08  -0.02  -0.02     0.12  -0.03  -0.10
  15   1     0.06   0.07   0.06     0.02   0.03   0.06    -0.05   0.00   0.04
  16   1    -0.07   0.06   0.06    -0.07   0.02   0.06    -0.07  -0.00   0.03
  17   1    -0.01   0.04  -0.13    -0.06   0.06  -0.12    -0.12   0.07  -0.06
  18   1    -0.05  -0.13  -0.08    -0.07  -0.12  -0.08    -0.07  -0.08  -0.05
  19   1     0.07  -0.06   0.04     0.10  -0.01   0.00     0.09   0.05  -0.01
  20   1     0.03  -0.01   0.03     0.03   0.06   0.06     0.02   0.12   0.11
  21   1     0.04   0.08   0.11     0.03   0.04   0.04     0.01  -0.03  -0.05
  22   1    -0.07   0.05   0.07    -0.01   0.01   0.05     0.08  -0.07   0.04
  23   1     0.00  -0.01  -0.12     0.01   0.00  -0.07    -0.00   0.03   0.08
  24   1    -0.09   0.07  -0.04    -0.03   0.06  -0.03     0.11   0.02   0.01
  25   1    -0.10  -0.15   0.06    -0.08  -0.10   0.04     0.01   0.05  -0.01
  26   1     0.05  -0.03   0.19     0.02  -0.01   0.13    -0.05   0.04  -0.05
  27   1     0.01   0.01  -0.05    -0.01  -0.00  -0.06    -0.04  -0.02   0.00
  28   1     0.09   0.00  -0.04     0.05  -0.04  -0.03    -0.07  -0.06   0.02
  29   7    -0.07   0.09  -0.07     0.06   0.04  -0.06    -0.02  -0.13   0.12
  30   6    -0.03   0.00  -0.04     0.08   0.01   0.02    -0.07  -0.04   0.00
  31   7    -0.07   0.10  -0.09     0.10  -0.11   0.12    -0.10   0.15  -0.14
  32   6    -0.02  -0.10  -0.04     0.05   0.09   0.09    -0.06  -0.06  -0.08
  33   6     0.09  -0.02   0.05    -0.04  -0.04  -0.08     0.05   0.06   0.07
  34   6    -0.06   0.16   0.01    -0.02  -0.15  -0.04     0.02   0.13   0.06
  35   6     0.04  -0.11   0.00    -0.11   0.08   0.02     0.10  -0.09  -0.00
  36   6     0.11  -0.11   0.03     0.01   0.05  -0.01    -0.05  -0.06   0.01
  37   6     0.02   0.09  -0.06    -0.05  -0.03   0.06     0.02  -0.04  -0.04
  38   6     0.02  -0.04   0.16    -0.06  -0.03  -0.08     0.03   0.05  -0.02
  39   6    -0.04   0.05  -0.05     0.02  -0.07  -0.05    -0.01   0.02   0.09
  40   1     0.01  -0.07  -0.01    -0.01   0.10   0.02     0.00  -0.09  -0.02
  41   1    -0.04  -0.04  -0.03     0.06   0.03   0.07    -0.06  -0.02  -0.07
  42   1     0.04  -0.05   0.00    -0.02   0.00  -0.03     0.02   0.00   0.03
  43   1     0.07   0.01   0.05    -0.02  -0.01  -0.05     0.02   0.02   0.04
  44   1     0.02   0.10  -0.07    -0.04  -0.09   0.02     0.04   0.08  -0.01
  45   1    -0.09   0.09   0.04     0.05  -0.07  -0.03    -0.05   0.06   0.03
  46   1    -0.03  -0.06  -0.02     0.00   0.04   0.06    -0.00  -0.04  -0.05
  47   1     0.05  -0.05   0.00    -0.09   0.05   0.01     0.08  -0.05  -0.00
  48   1     0.06  -0.06  -0.00     0.00   0.00   0.01    -0.03   0.01  -0.01
  49   1     0.05  -0.01   0.04     0.02   0.03  -0.02    -0.04  -0.05   0.01
  50   1    -0.02   0.04  -0.04    -0.02  -0.01   0.02     0.03  -0.03   0.03
  51   1     0.06   0.04  -0.03    -0.04   0.00   0.04    -0.01  -0.06  -0.04
  52   1    -0.03   0.03   0.12    -0.01  -0.03  -0.05     0.02   0.00  -0.03
  53   1     0.05  -0.09   0.08    -0.04   0.01  -0.04     0.01   0.04  -0.01
  54   1    -0.01   0.04  -0.01     0.01  -0.05  -0.01    -0.00   0.02   0.02
  55   1    -0.04  -0.01  -0.04     0.04  -0.01  -0.02    -0.01   0.02   0.05
  56   6     0.21   0.01  -0.03    -0.30  -0.02   0.07    -0.06  -0.09  -0.01
  57   8    -0.01  -0.03   0.16     0.01   0.04  -0.22    -0.01   0.04  -0.06
  58   6    -0.16  -0.07  -0.04     0.34   0.18   0.13    -0.10   0.02   0.07
  59   8     0.00   0.11  -0.03    -0.01  -0.23   0.02    -0.02   0.06  -0.05
                     25                     26                     27
                        a                      a                      a 
 Frequencies --   265.5974               294.9875               295.7904
 Red. masses --    11.7373                 7.5040                 8.2271
 Frc consts  --     0.0000                 0.0000                 0.0000
 IR Inten    --     0.2181                 0.4597                 0.2055
 Raman Activ --     0.0000                 0.0000                 0.0000
 Depolar     --     0.0000                 0.0000                 0.0000
 Atom AN      X      Y      Z        X      Y      Z        X      Y      Z
   1  28     0.04   0.13   0.06     0.03  -0.01  -0.02    -0.08  -0.04  -0.05
   2   7    -0.04   0.08  -0.17    -0.08   0.02  -0.05    -0.01   0.00  -0.02
   3   6    -0.05   0.06  -0.02    -0.19  -0.02  -0.11    -0.03  -0.00  -0.02
   4   7    -0.00   0.01   0.19    -0.16  -0.10   0.10    -0.03  -0.01   0.01
   5   6    -0.07   0.00   0.05     0.03  -0.04   0.14    -0.01  -0.01   0.02
   6   6     0.10  -0.01   0.00     0.16   0.12   0.16     0.02   0.03   0.02
   7   6     0.11  -0.00   0.01     0.00  -0.04  -0.29    -0.00  -0.01  -0.04
   8   6    -0.01  -0.06  -0.10     0.23   0.13  -0.13     0.03   0.02  -0.02
   9   6    -0.05   0.05  -0.03    -0.18   0.03  -0.01    -0.03   0.00   0.00
  10   6    -0.05  -0.03  -0.04    -0.03  -0.20   0.19    -0.00  -0.03   0.04
  11   6     0.02  -0.07   0.05     0.06   0.01  -0.19     0.01   0.01  -0.04
  12   6     0.07   0.03  -0.08    -0.01   0.07   0.19    -0.01   0.02   0.04
  13   1    -0.05  -0.01  -0.03    -0.01   0.01   0.01    -0.01  -0.00  -0.00
  14   1    -0.05   0.01   0.05     0.01  -0.05   0.08    -0.00  -0.01   0.01
  15   1     0.03  -0.00  -0.01     0.12   0.08   0.09     0.02   0.02   0.02
  16   1     0.04  -0.00  -0.01    -0.05   0.08   0.07    -0.01   0.02   0.01
  17   1     0.05  -0.03   0.02     0.00   0.08  -0.20     0.00   0.01  -0.03
  18   1     0.02   0.03   0.02    -0.09  -0.13  -0.11    -0.01  -0.02  -0.02
  19   1    -0.03  -0.02  -0.00     0.17   0.05  -0.13     0.02   0.01  -0.02
  20   1    -0.00  -0.05  -0.05     0.11   0.11   0.08     0.02   0.01   0.01
  21   1    -0.01   0.01   0.02    -0.03   0.01   0.06    -0.01   0.00   0.01
  22   1    -0.04   0.03  -0.02    -0.10   0.01   0.01    -0.02  -0.00   0.00
  23   1     0.00  -0.01  -0.07    -0.04  -0.06   0.15    -0.01  -0.01   0.03
  24   1    -0.08  -0.00  -0.02     0.08  -0.14   0.05     0.02  -0.03   0.01
  25   1    -0.03  -0.06   0.02     0.12   0.11  -0.06     0.03   0.03  -0.01
  26   1     0.03  -0.02   0.06    -0.01  -0.04  -0.19    -0.00  -0.00  -0.04
  27   1     0.02   0.01  -0.03     0.04  -0.02   0.17     0.01  -0.00   0.04
  28   1     0.05   0.02  -0.03    -0.06   0.14   0.07    -0.02   0.04   0.02
  29   7    -0.00  -0.22   0.19    -0.01  -0.01   0.00     0.05   0.05   0.03
  30   6    -0.09  -0.09   0.01    -0.00  -0.04  -0.01     0.01   0.22   0.05
  31   7    -0.13   0.21  -0.21    -0.00  -0.01  -0.04     0.02   0.05   0.21
  32   6    -0.07  -0.07  -0.12    -0.00   0.02  -0.02     0.01  -0.12   0.09
  33   6     0.08   0.10   0.09    -0.02   0.05   0.01     0.10  -0.23  -0.05
  34   6     0.03   0.17   0.08     0.03  -0.03   0.03    -0.13   0.18  -0.17
  35   6     0.14  -0.13   0.01     0.01   0.01   0.06    -0.01  -0.08  -0.30
  36   6    -0.08  -0.11   0.01    -0.01  -0.03  -0.01     0.07   0.17   0.07
  37   6     0.01  -0.10  -0.05     0.02   0.01  -0.04    -0.08  -0.07   0.24
  38   6     0.03   0.05  -0.08     0.02  -0.01   0.02    -0.09   0.08  -0.15
  39   6     0.01  -0.01   0.15    -0.02   0.02  -0.01     0.14  -0.11   0.09
  40   1     0.00  -0.11  -0.02    -0.00  -0.00  -0.00     0.02   0.00   0.00
  41   1    -0.08  -0.02  -0.09     0.00   0.01  -0.01    -0.02  -0.07   0.06
  42   1     0.03   0.00   0.04    -0.01   0.03   0.01     0.06  -0.14  -0.04
  43   1     0.04   0.03   0.05    -0.02   0.00  -0.01     0.10  -0.01   0.03
  44   1     0.06   0.10  -0.01     0.00  -0.02   0.03    -0.01   0.12  -0.17
  45   1    -0.06   0.07   0.04     0.02  -0.03  -0.01    -0.11   0.14   0.04
  46   1    -0.00  -0.06  -0.06     0.01   0.01   0.04    -0.07  -0.04  -0.22
  47   1     0.11  -0.07   0.00    -0.02   0.03   0.01     0.09  -0.14  -0.07
  48   1    -0.05   0.02  -0.02    -0.01   0.00  -0.01     0.04   0.00   0.05
  49   1    -0.06  -0.08   0.01    -0.01  -0.01  -0.01     0.04   0.07   0.06
  50   1     0.05  -0.06   0.05    -0.00   0.01  -0.02     0.02  -0.05   0.14
  51   1    -0.03  -0.10  -0.06     0.02   0.01  -0.01    -0.11  -0.08   0.06
  52   1     0.03  -0.02  -0.07    -0.00   0.01   0.02     0.03  -0.05  -0.16
  53   1     0.01   0.08  -0.04     0.02  -0.02   0.01    -0.11   0.13  -0.09
  54   1     0.00  -0.00   0.04    -0.01   0.02  -0.01     0.04  -0.13   0.08
  55   1    -0.00   0.02   0.08    -0.02  -0.00   0.00     0.15   0.00   0.02
  56   6    -0.27  -0.03   0.05     0.01  -0.00  -0.00     0.09  -0.01  -0.04
  57   8    -0.00   0.03  -0.20    -0.00  -0.00   0.00    -0.01  -0.00   0.05
  58   6     0.26   0.12   0.10     0.03  -0.00   0.00     0.03   0.01   0.00
  59   8     0.00  -0.18   0.03     0.01  -0.02   0.01     0.00  -0.02   0.00
                     28                     29                     30
                        a                      a                      a 
 Frequencies --   318.0457               346.1748               347.7323
 Red. masses --    19.3722                 9.9599                10.6849
 Frc consts  --     0.0000                 0.0000                 0.0000
 IR Inten    --     2.5554                 6.7791                 3.1125
 Raman Activ --     0.0000                 0.0000                 0.0000
 Depolar     --     0.0000                 0.0000                 0.0000
 Atom AN      X      Y      Z        X      Y      Z        X      Y      Z
   1  28     0.33  -0.12   0.19     0.03   0.03   0.06     0.09  -0.04   0.08
   2   7     0.00   0.04   0.08    -0.06   0.03  -0.27    -0.05   0.02  -0.24
   3   6    -0.04   0.02   0.01     0.05   0.06  -0.13     0.04   0.04  -0.11
   4   7    -0.02  -0.02   0.09     0.00   0.03  -0.24     0.01   0.01  -0.19
   5   6     0.05   0.00   0.05    -0.16  -0.05   0.06    -0.12  -0.05   0.04
   6   6     0.07  -0.02   0.02    -0.11  -0.07   0.08    -0.08  -0.06   0.06
   7   6     0.01   0.03  -0.06     0.01  -0.23   0.17     0.01  -0.17   0.13
   8   6     0.03   0.06  -0.09     0.09  -0.14   0.05     0.06  -0.11   0.03
   9   6    -0.05   0.01  -0.07     0.18  -0.01   0.03     0.13   0.01   0.02
  10   6    -0.05  -0.03  -0.04     0.09   0.05   0.04     0.07   0.04   0.04
  11   6    -0.00  -0.07   0.03    -0.01   0.10  -0.04    -0.02   0.08  -0.04
  12   6     0.03  -0.05  -0.08    -0.04   0.19   0.09    -0.03   0.16   0.07
  13   1     0.01   0.02   0.01    -0.06  -0.07   0.00    -0.04  -0.06   0.00
  14   1     0.02  -0.01   0.01    -0.08   0.00   0.04    -0.06  -0.00   0.04
  15   1     0.01  -0.01   0.00     0.00   0.01   0.00     0.00   0.00   0.00
  16   1     0.03  -0.01   0.01    -0.06  -0.01   0.03    -0.04  -0.01   0.02
  17   1     0.01   0.02  -0.03     0.01  -0.09   0.08     0.01  -0.07   0.07
  18   1    -0.02   0.00  -0.01     0.03  -0.03   0.06     0.02  -0.02   0.05
  19   1     0.02   0.03  -0.05     0.04  -0.06   0.03     0.02  -0.05   0.03
  20   1     0.02   0.03   0.00    -0.01  -0.01  -0.01    -0.01  -0.01  -0.02
  21   1    -0.02  -0.01  -0.02     0.06  -0.01   0.03     0.04   0.01   0.03
  22   1    -0.00   0.01  -0.03     0.03   0.00   0.01     0.01   0.01   0.01
  23   1    -0.00  -0.01  -0.05     0.00   0.02   0.08     0.00   0.01   0.07
  24   1    -0.05  -0.00  -0.01     0.11   0.01   0.02     0.08   0.01   0.01
  25   1    -0.03  -0.04   0.01     0.02   0.05  -0.01     0.01   0.04  -0.01
  26   1     0.02  -0.02   0.04    -0.01   0.02  -0.03    -0.01   0.02  -0.03
  27   1     0.01   0.02  -0.08     0.00  -0.00   0.15    -0.00  -0.00   0.12
  28   1     0.03  -0.08  -0.03    -0.02   0.19   0.04    -0.02   0.16   0.04
  29   7     0.04   0.00  -0.01     0.08  -0.19   0.13    -0.06   0.21  -0.16
  30   6     0.04   0.05   0.02     0.04  -0.05   0.10    -0.01   0.07  -0.13
  31   7     0.04  -0.01   0.09     0.07  -0.12   0.13    -0.06   0.16  -0.15
  32   6     0.03  -0.02   0.04    -0.00  -0.07  -0.11     0.03   0.08   0.17
  33   6     0.01  -0.06  -0.01     0.00  -0.03  -0.11     0.00   0.02   0.15
  34   6    -0.03   0.03  -0.04     0.09   0.10  -0.17    -0.14  -0.12   0.23
  35   6    -0.01   0.00  -0.09     0.10   0.06  -0.06    -0.14  -0.09   0.03
  36   6     0.01   0.06   0.00     0.03   0.11   0.04    -0.06  -0.13  -0.07
  37   6     0.00   0.06   0.06    -0.04   0.09   0.02     0.05  -0.08  -0.03
  38   6    -0.01   0.00   0.04    -0.08  -0.04   0.08     0.09   0.05  -0.08
  39   6    -0.02   0.03  -0.04    -0.21   0.04  -0.01     0.24  -0.04  -0.02
  40   1     0.01   0.01   0.00     0.04  -0.03  -0.05    -0.04   0.04   0.07
  41   1     0.01  -0.01   0.02    -0.03  -0.02  -0.05     0.04   0.03   0.08
  42   1     0.01  -0.02  -0.01    -0.00   0.00   0.00     0.01  -0.01  -0.01
  43   1     0.01  -0.01   0.01    -0.01  -0.02  -0.03     0.02   0.02   0.05
  44   1    -0.01   0.02  -0.03     0.04   0.05  -0.08    -0.05  -0.06   0.10
  45   1    -0.01   0.03   0.01     0.00   0.05  -0.03    -0.01  -0.06   0.04
  46   1    -0.01  -0.00  -0.06     0.04   0.03  -0.04    -0.06  -0.04   0.01
  47   1     0.02  -0.03  -0.02     0.01  -0.02  -0.01    -0.00   0.01  -0.00
  48   1    -0.01   0.01   0.02    -0.01   0.06   0.01    -0.01  -0.06  -0.00
  49   1    -0.00   0.01  -0.01    -0.01   0.01  -0.01    -0.00  -0.02  -0.01
  50   1    -0.01   0.02   0.00    -0.05   0.05  -0.05     0.05  -0.05   0.05
  51   1     0.01   0.03   0.03     0.02   0.08   0.04    -0.02  -0.09  -0.05
  52   1    -0.00   0.01   0.03    -0.04   0.01   0.06     0.04  -0.01  -0.05
  53   1    -0.01  -0.02   0.02    -0.01  -0.05   0.04     0.01   0.04  -0.03
  54   1    -0.01   0.03  -0.03    -0.06   0.10  -0.10     0.07  -0.10   0.10
  55   1    -0.03   0.00  -0.01    -0.19   0.00   0.05     0.20  -0.00  -0.06
  56   6    -0.50   0.07   0.15    -0.10   0.01   0.02    -0.12   0.04   0.04
  57   8     0.02   0.01  -0.31    -0.01   0.01  -0.07     0.01  -0.00  -0.08
  58   6    -0.41  -0.22  -0.11    -0.01  -0.01   0.00    -0.11  -0.05  -0.05
  59   8     0.01   0.24  -0.03     0.00   0.00   0.00    -0.00   0.07  -0.01
                     31                     32                     33
                        a                      a                      a 
 Frequencies --   365.7112               367.1217               388.6898
 Red. masses --     9.5336                 9.0401                 9.4244
 Frc consts  --     0.0000                 0.0000                 0.0000
 IR Inten    --     3.3783                 4.7801                 1.2193
 Raman Activ --     0.0000                 0.0000                 0.0000
 Depolar     --     0.0000                 0.0000                 0.0000
 Atom AN      X      Y      Z        X      Y      Z        X      Y      Z
   1  28    -0.07   0.02  -0.06    -0.00   0.01   0.03    -0.02   0.02   0.00
   2   7     0.02   0.11   0.21    -0.03  -0.16  -0.25    -0.02  -0.03  -0.04
   3   6    -0.05   0.09   0.03     0.05  -0.13  -0.02     0.01  -0.02  -0.00
   4   7    -0.09   0.07  -0.01     0.12  -0.08   0.07     0.04   0.02   0.06
   5   6    -0.13   0.04   0.11     0.19  -0.03  -0.17    -0.03   0.01  -0.03
   6   6    -0.04  -0.01   0.09     0.05   0.04  -0.14    -0.03   0.05  -0.02
   7   6    -0.01  -0.14   0.03    -0.00   0.22  -0.07    -0.01   0.01  -0.02
   8   6     0.15   0.02  -0.10    -0.21  -0.00   0.16    -0.00   0.01   0.03
   9   6     0.09  -0.10  -0.16    -0.13   0.12   0.22     0.01  -0.03   0.01
  10   6    -0.05   0.02  -0.04     0.06  -0.03   0.05     0.02  -0.00  -0.00
  11   6     0.00  -0.01   0.04     0.01  -0.00  -0.05     0.02  -0.01  -0.00
  12   6     0.03  -0.02  -0.08    -0.03  -0.01   0.10     0.00  -0.03   0.01
  13   1    -0.05  -0.01   0.02     0.07   0.02  -0.03    -0.01  -0.01  -0.02
  14   1    -0.05   0.01   0.05     0.07  -0.00  -0.08    -0.02   0.01  -0.00
  15   1     0.02   0.03   0.00    -0.03  -0.03  -0.00     0.01   0.02   0.01
  16   1    -0.04   0.00   0.04     0.05   0.01  -0.06    -0.03   0.03  -0.01
  17   1    -0.00  -0.04   0.01    -0.01   0.07  -0.03    -0.01   0.01  -0.01
  18   1    -0.02  -0.03   0.02     0.02   0.04  -0.04     0.00  -0.01  -0.01
  19   1     0.11   0.02  -0.10    -0.14  -0.02   0.13     0.00   0.00   0.00
  20   1     0.05   0.09   0.03    -0.06  -0.11  -0.04    -0.00   0.00   0.01
  21   1    -0.02  -0.10  -0.07     0.01   0.12   0.08     0.00  -0.01  -0.01
  22   1     0.10  -0.03  -0.06    -0.13   0.03   0.09     0.01  -0.01   0.01
  23   1    -0.01  -0.01  -0.03     0.02   0.01   0.03     0.01   0.00  -0.01
  24   1    -0.03   0.02  -0.01     0.03  -0.03   0.01    -0.00  -0.00  -0.00
  25   1    -0.02  -0.02   0.01     0.04   0.03  -0.02     0.01  -0.00  -0.00
  26   1     0.01  -0.00   0.04    -0.02   0.00  -0.05    -0.00   0.00  -0.00
  27   1     0.01   0.04  -0.11    -0.01  -0.06   0.14     0.00  -0.01   0.01
  28   1     0.02  -0.11  -0.03    -0.02   0.12   0.04     0.00   0.01   0.00
  29   7     0.23  -0.16   0.05     0.18  -0.14   0.05     0.20  -0.18  -0.05
  30   6     0.13   0.02  -0.04     0.11   0.00  -0.01     0.12   0.04  -0.03
  31   7     0.08   0.12  -0.04     0.08   0.07  -0.01    -0.17   0.39  -0.02
  32   6     0.15   0.03   0.19     0.12   0.04   0.13    -0.09  -0.30  -0.03
  33   6     0.03  -0.05   0.14     0.04  -0.03   0.09    -0.32  -0.21   0.09
  34   6    -0.16  -0.05   0.16    -0.11  -0.02   0.10     0.01  -0.12  -0.00
  35   6    -0.13  -0.06  -0.21    -0.08  -0.05  -0.16    -0.06   0.13  -0.03
  36   6    -0.23   0.02  -0.16    -0.18   0.02  -0.12     0.23   0.07  -0.02
  37   6     0.01   0.07  -0.04     0.00   0.06  -0.03     0.04   0.10   0.13
  38   6     0.01  -0.03   0.04    -0.00  -0.03   0.04     0.05   0.07   0.05
  39   6    -0.07   0.06  -0.10    -0.07   0.04  -0.07     0.13   0.06  -0.11
  40   1     0.02   0.03   0.06     0.01   0.03   0.05     0.05  -0.16  -0.03
  41   1     0.05   0.00   0.08     0.05   0.01   0.06    -0.15  -0.12  -0.05
  42   1     0.01  -0.02  -0.03     0.02  -0.02  -0.02    -0.16   0.10   0.08
  43   1     0.03  -0.00   0.07     0.03   0.01   0.05    -0.23  -0.18   0.03
  44   1    -0.05  -0.02   0.05    -0.03  -0.01   0.03    -0.02  -0.07   0.03
  45   1    -0.01  -0.01   0.06    -0.01  -0.00   0.04     0.08  -0.03   0.01
  46   1    -0.08  -0.03  -0.17    -0.06  -0.02  -0.13     0.01   0.04   0.06
  47   1     0.08  -0.06  -0.07     0.07  -0.05  -0.05    -0.08   0.07  -0.01
  48   1    -0.13   0.06   0.01    -0.11   0.06   0.01     0.10  -0.04   0.01
  49   1    -0.10  -0.05  -0.12    -0.08  -0.04  -0.09     0.11   0.08  -0.02
  50   1    -0.02   0.03  -0.01    -0.02   0.03  -0.02     0.04   0.01   0.08
  51   1     0.03   0.03  -0.01     0.02   0.03  -0.00     0.00  -0.03  -0.01
  52   1    -0.01   0.02   0.06    -0.01   0.02   0.05     0.02   0.04   0.04
  53   1     0.02  -0.06   0.03     0.01  -0.05   0.02    -0.02  -0.03   0.01
  54   1    -0.02   0.09  -0.13    -0.02   0.08  -0.10     0.04   0.03  -0.06
  55   1    -0.14   0.01   0.02    -0.12   0.00   0.02     0.00   0.02  -0.01
  56   6     0.13   0.01  -0.05    -0.03  -0.01   0.01    -0.02  -0.00   0.00
  57   8     0.00  -0.00   0.07     0.00   0.00  -0.02    -0.01   0.00  -0.01
  58   6     0.08   0.01   0.01    -0.02   0.02   0.03     0.02   0.01   0.01
  59   8     0.01  -0.06   0.02    -0.01   0.02  -0.02     0.00  -0.02   0.00
                     34                     35                     36
                        a                      a                      a 
 Frequencies --   389.8125               424.7461               429.5143
 Red. masses --     9.7610                16.8563                 8.7060
 Frc consts  --     0.0000                 0.0000                 0.0000
 IR Inten    --     2.5130                11.8947                 5.5880
 Raman Activ --     0.0000                 0.0000                 0.0000
 Depolar     --     0.0000                 0.0000                 0.0000
 Atom AN      X      Y      Z        X      Y      Z        X      Y      Z
   1  28    -0.02  -0.03  -0.06     0.03  -0.28  -0.22     0.01   0.01  -0.03
   2   7     0.11   0.19   0.15     0.06  -0.08   0.11     0.05  -0.05   0.08
   3   6    -0.05   0.11  -0.01     0.15  -0.03  -0.05     0.11  -0.02  -0.02
   4   7    -0.23  -0.14  -0.34     0.18  -0.06   0.03     0.11  -0.05   0.01
   5   6     0.27  -0.08   0.14    -0.13  -0.15   0.02    -0.08  -0.12   0.01
   6   6     0.22  -0.31   0.07     0.04   0.00   0.05     0.04  -0.01   0.04
   7   6     0.09   0.00   0.08    -0.00   0.01  -0.03    -0.00   0.02  -0.03
   8   6    -0.05  -0.04  -0.13     0.02   0.06  -0.13     0.01   0.04  -0.08
   9   6    -0.12   0.21   0.03     0.00   0.13  -0.05     0.00   0.10  -0.02
  10   6    -0.17  -0.03   0.05     0.06   0.05  -0.02     0.03   0.03  -0.01
  11   6    -0.11   0.03   0.00    -0.13   0.02   0.02    -0.10   0.01   0.01
  12   6    -0.03   0.19  -0.04    -0.13  -0.02   0.01    -0.09   0.01   0.00
  13   1     0.12   0.05   0.10    -0.10  -0.13  -0.08    -0.07  -0.09  -0.06
  14   1     0.16  -0.10  -0.00    -0.13  -0.00   0.10    -0.09  -0.01   0.07
  15   1    -0.06  -0.17  -0.07     0.04   0.02   0.05     0.03   0.01   0.04
  16   1     0.19  -0.20   0.04    -0.02   0.04  -0.00    -0.01   0.02  -0.00
  17   1     0.04  -0.04   0.06     0.01   0.00  -0.02     0.01   0.01  -0.02
  18   1    -0.01   0.06   0.06    -0.03   0.01   0.00    -0.03   0.01  -0.00
  19   1    -0.07  -0.02   0.02     0.02   0.01  -0.04     0.01   0.01  -0.02
  20   1    -0.02  -0.07  -0.08     0.00   0.03  -0.03    -0.00   0.02  -0.02
  21   1    -0.00   0.09   0.08     0.05   0.12   0.04     0.03   0.08   0.02
  22   1    -0.09   0.10  -0.02    -0.11   0.06  -0.01    -0.07   0.05  -0.01
  23   1    -0.07  -0.01   0.07     0.04   0.05  -0.02     0.02   0.03  -0.01
  24   1     0.03   0.01   0.02     0.01   0.02  -0.01     0.00   0.01  -0.00
  25   1    -0.06   0.01   0.00    -0.06  -0.02   0.01    -0.05  -0.01   0.01
  26   1     0.02  -0.03   0.01    -0.04   0.02   0.04    -0.03   0.01   0.03
  27   1    -0.00   0.07  -0.03    -0.05  -0.00  -0.00    -0.03   0.00   0.00
  28   1    -0.02   0.02  -0.01    -0.06  -0.02   0.00    -0.04  -0.01   0.00
  29   7     0.04  -0.04  -0.00     0.03   0.05  -0.01    -0.05  -0.22   0.12
  30   6     0.02   0.00  -0.00     0.04   0.04   0.05    -0.12  -0.17  -0.14
  31   7    -0.02   0.06  -0.00     0.06   0.07   0.02    -0.19  -0.20  -0.07
  32   6    -0.01  -0.04  -0.00     0.06  -0.04  -0.08    -0.16   0.11   0.24
  33   6    -0.05  -0.03   0.01     0.01   0.04  -0.00    -0.02  -0.13   0.01
  34   6    -0.00  -0.02   0.00    -0.00  -0.01   0.02     0.02   0.04  -0.06
  35   6    -0.01   0.02  -0.01     0.00  -0.03   0.05     0.00   0.11  -0.18
  36   6     0.02   0.01  -0.01    -0.06  -0.01   0.05     0.18   0.03  -0.16
  37   6     0.01   0.02   0.02    -0.01   0.01   0.02     0.02  -0.04  -0.08
  38   6     0.01   0.01   0.01    -0.04  -0.05  -0.04     0.11   0.16   0.14
  39   6     0.01   0.01  -0.02    -0.04  -0.05  -0.03     0.09   0.15   0.13
  40   1     0.01  -0.02  -0.00     0.05  -0.06  -0.03    -0.17   0.19   0.10
  41   1    -0.02  -0.02  -0.01    -0.03  -0.01  -0.07     0.11   0.04   0.22
  42   1    -0.02   0.01   0.01    -0.01   0.03  -0.01     0.02  -0.09   0.02
  43   1    -0.03  -0.03   0.01    -0.01  -0.01   0.01     0.04   0.01  -0.02
  44   1    -0.00  -0.01   0.01     0.00  -0.00   0.01    -0.00   0.01  -0.04
  45   1     0.01  -0.00   0.00    -0.01  -0.01  -0.01     0.03   0.05   0.03
  46   1     0.00   0.01   0.00     0.00  -0.01   0.01    -0.00   0.02  -0.05
  47   1    -0.01   0.01  -0.00    -0.00  -0.01   0.02     0.01   0.04  -0.05
  48   1     0.01  -0.00   0.00    -0.05   0.03   0.03     0.15  -0.10  -0.10
  49   1     0.01   0.01  -0.01    -0.05  -0.04  -0.01     0.14   0.13   0.01
  50   1     0.00   0.00   0.01    -0.02   0.01   0.02     0.05  -0.03  -0.07
  51   1     0.00  -0.00  -0.00    -0.01   0.00   0.01     0.02  -0.01  -0.03
  52   1     0.00   0.01   0.01    -0.01  -0.03  -0.03     0.02   0.08   0.09
  53   1    -0.00  -0.01   0.00    -0.02   0.00  -0.02     0.07   0.00   0.06
  54   1     0.00   0.01  -0.02    -0.01  -0.02  -0.02     0.03   0.06   0.04
  55   1    -0.01   0.00   0.00    -0.01  -0.02  -0.01     0.02   0.07   0.07
  56   6     0.03   0.00   0.01    -0.07   0.23   0.30    -0.02  -0.02   0.02
  57   8     0.01  -0.01   0.04     0.14  -0.11   0.16     0.00  -0.00   0.00
  58   6     0.03   0.04   0.03    -0.01   0.37   0.20     0.02   0.04   0.03
  59   8    -0.00  -0.01  -0.01    -0.15   0.15  -0.17    -0.01  -0.00  -0.01
                     37                     38                     39
                        a                      a                      a 
 Frequencies --   433.5284               467.2603               468.5564
 Red. masses --    14.3180                 8.3836                 8.4898
 Frc consts  --     0.0000                 0.0000                 0.0000
 IR Inten    --     8.8167                 2.0450                 1.5311
 Raman Activ --     0.0000                 0.0000                 0.0000
 Depolar     --     0.0000                 0.0000                 0.0000
 Atom AN      X      Y      Z        X      Y      Z        X      Y      Z
   1  28    -0.04   0.23   0.17    -0.01  -0.03   0.02    -0.01   0.02   0.04
   2   7     0.11  -0.07   0.16     0.04  -0.05   0.00     0.11  -0.16   0.02
   3   6     0.20  -0.02  -0.01    -0.05  -0.08  -0.09    -0.13  -0.22  -0.24
   4   7     0.19  -0.12   0.01     0.00   0.02  -0.03     0.01   0.07  -0.09
   5   6    -0.13  -0.22   0.01    -0.01   0.02   0.02    -0.03   0.04   0.06
   6   6     0.09  -0.02   0.06    -0.01  -0.01   0.01    -0.01  -0.05   0.05
   7   6    -0.00   0.05  -0.06     0.01  -0.03   0.03     0.02  -0.10   0.08
   8   6     0.00   0.07  -0.13     0.01  -0.02  -0.02     0.02  -0.05  -0.06
   9   6     0.01   0.19  -0.03    -0.11  -0.02   0.02    -0.29  -0.03   0.07
  10   6     0.04   0.04  -0.01    -0.02   0.10  -0.00    -0.02   0.26  -0.01
  11   6    -0.20   0.02   0.02     0.09   0.11   0.04     0.24   0.30   0.10
  12   6    -0.17   0.03   0.00     0.06  -0.06   0.00     0.15  -0.16   0.01
  13   1    -0.11  -0.15  -0.10    -0.01  -0.01  -0.00    -0.03  -0.04  -0.01
  14   1    -0.14  -0.02   0.12    -0.01   0.01   0.01    -0.05   0.03   0.05
  15   1     0.04   0.00   0.06    -0.00  -0.00  -0.00    -0.00  -0.01  -0.02
  16   1    -0.00   0.03  -0.01    -0.00  -0.01   0.01     0.00  -0.03   0.03
  17   1     0.01   0.02  -0.04     0.01  -0.03   0.02     0.02  -0.07   0.06
  18   1    -0.05   0.01  -0.01     0.01   0.01   0.02     0.01   0.03   0.05
  19   1     0.00   0.01  -0.02     0.02   0.01  -0.03     0.06   0.01  -0.08
  20   1    -0.00   0.02  -0.05     0.01   0.01   0.02     0.04   0.02   0.06
  21   1     0.06   0.13   0.04     0.00   0.04   0.05     0.01   0.11   0.14
  22   1    -0.11   0.09  -0.01    -0.10  -0.00   0.02    -0.28   0.00   0.06
  23   1     0.03   0.06  -0.01     0.00   0.01  -0.04     0.01   0.02  -0.10
  24   1     0.00   0.02  -0.00    -0.04   0.05  -0.00    -0.09   0.14  -0.00
  25   1    -0.10  -0.02   0.01     0.05   0.06   0.01     0.15   0.16   0.02
  26   1    -0.04   0.02   0.05     0.00   0.03  -0.03     0.00   0.09  -0.08
  27   1    -0.06   0.01   0.00    -0.02  -0.01  -0.04    -0.05  -0.03  -0.09
  28   1    -0.08  -0.01   0.00     0.04  -0.05  -0.01     0.11  -0.14  -0.02
  29   7     0.01   0.07  -0.05     0.16   0.10  -0.05    -0.05  -0.05   0.02
  30   6     0.04   0.05   0.04     0.23  -0.25  -0.03    -0.08   0.09   0.01
  31   7     0.06   0.06   0.03    -0.03  -0.05   0.10     0.01   0.02  -0.04
  32   6     0.05  -0.03  -0.07    -0.08   0.01  -0.03     0.03  -0.01   0.01
  33   6     0.01   0.04  -0.01     0.02   0.02  -0.06    -0.01  -0.01   0.02
  34   6    -0.01  -0.01   0.02     0.06   0.07  -0.09    -0.02  -0.02   0.03
  35   6    -0.00  -0.04   0.06     0.07  -0.02   0.03    -0.03   0.01  -0.01
  36   6    -0.05  -0.01   0.05    -0.09  -0.18  -0.22     0.04   0.07   0.08
  37   6    -0.00   0.02   0.04    -0.22  -0.03   0.14     0.08   0.01  -0.05
  38   6    -0.03  -0.05  -0.04    -0.21   0.24   0.23     0.08  -0.09  -0.08
  39   6    -0.02  -0.04  -0.05     0.20   0.12  -0.01    -0.07  -0.04   0.00
  40   1     0.05  -0.06  -0.03     0.02  -0.02  -0.03    -0.01   0.01   0.01
  41   1    -0.03  -0.01  -0.07    -0.07  -0.00  -0.04     0.02   0.00   0.02
  42   1    -0.00   0.03  -0.01     0.01  -0.02   0.00    -0.01   0.01  -0.00
  43   1    -0.01  -0.00   0.01     0.02   0.02  -0.03    -0.01  -0.01   0.01
  44   1     0.00  -0.00   0.01     0.04   0.06  -0.07    -0.02  -0.02   0.02
  45   1    -0.01  -0.01  -0.01    -0.05   0.04  -0.01     0.02  -0.02   0.00
  46   1     0.00  -0.01   0.01     0.04  -0.01   0.09    -0.02   0.00  -0.03
  47   1    -0.00  -0.01   0.02    -0.03   0.07  -0.00     0.01  -0.03   0.00
  48   1    -0.05   0.03   0.03    -0.15   0.10  -0.03     0.05  -0.04   0.01
  49   1    -0.04  -0.04  -0.01    -0.12  -0.18  -0.19     0.04   0.06   0.07
  50   1    -0.01   0.01   0.03     0.03  -0.06   0.08    -0.01   0.02  -0.03
  51   1    -0.01   0.00   0.01    -0.15  -0.07   0.03     0.05   0.03  -0.01
  52   1    -0.00  -0.02  -0.02    -0.09   0.12   0.15     0.03  -0.05  -0.05
  53   1    -0.02  -0.01  -0.02    -0.04  -0.05   0.10     0.02   0.02  -0.04
  54   1    -0.01  -0.01  -0.01     0.05  -0.10   0.02    -0.02   0.04  -0.01
  55   1    -0.00  -0.02  -0.03     0.17   0.07  -0.01    -0.07  -0.03   0.00
  56   6     0.09  -0.24  -0.26     0.02  -0.02  -0.02    -0.01  -0.06  -0.01
  57   8    -0.12   0.10  -0.12    -0.00   0.01  -0.00    -0.01   0.02  -0.02
  58   6    -0.01  -0.29  -0.17    -0.00   0.01  -0.03     0.00   0.00  -0.03
  59   8     0.11  -0.10   0.13    -0.02   0.02  -0.00    -0.01   0.01   0.01
                     40                     41                     42
                        a                      a                      a 
 Frequencies --   476.4696               497.8778               500.1698
 Red. masses --    13.7529                 9.9035                 9.9771
 Frc consts  --     0.0000                 0.0000                 0.0000
 IR Inten    --     0.6765                 1.0829                 0.3764
 Raman Activ --     0.0000                 0.0000                 0.0000
 Depolar     --     0.0000                 0.0000                 0.0000
 Atom AN      X      Y      Z        X      Y      Z        X      Y      Z
   1  28    -0.04   0.11  -0.10    -0.01  -0.05   0.07     0.02  -0.08   0.07
   2   7    -0.04  -0.03   0.02     0.28   0.07  -0.04    -0.09  -0.02   0.02
   3   6     0.00  -0.02  -0.03     0.04  -0.04   0.03    -0.01   0.02  -0.00
   4   7     0.03   0.04  -0.03    -0.02  -0.29   0.15     0.00   0.10  -0.06
   5   6    -0.00   0.02   0.03     0.09  -0.28  -0.25    -0.04   0.10   0.09
   6   6     0.01  -0.02   0.01    -0.12   0.07  -0.06     0.05  -0.03   0.03
   7   6     0.00  -0.00   0.01    -0.01  -0.06   0.04     0.00   0.03  -0.02
   8   6    -0.00   0.00  -0.02     0.04  -0.01   0.01    -0.02   0.01  -0.00
   9   6    -0.02   0.02   0.01     0.01  -0.06  -0.02    -0.00   0.02   0.00
  10   6     0.05   0.02  -0.03    -0.30   0.02   0.16     0.10  -0.00  -0.05
  11   6     0.01  -0.01  -0.00    -0.03   0.20   0.07     0.01  -0.07  -0.02
  12   6    -0.01  -0.05   0.02     0.08   0.26  -0.11    -0.03  -0.09   0.04
  13   1    -0.01  -0.01   0.00     0.07  -0.02  -0.01    -0.03   0.00  -0.00
  14   1    -0.01   0.01   0.02     0.07  -0.08  -0.14    -0.03   0.03   0.06
  15   1    -0.01  -0.01  -0.01     0.10   0.10   0.15    -0.04  -0.04  -0.06
  16   1     0.02  -0.02   0.01    -0.18   0.17  -0.07     0.07  -0.07   0.03
  17   1     0.00  -0.00   0.00    -0.00  -0.06   0.07    -0.00   0.03  -0.03
  18   1    -0.00   0.00   0.01     0.05   0.04   0.02    -0.02  -0.02  -0.01
  19   1    -0.00   0.00  -0.01     0.05   0.00  -0.03    -0.02   0.00   0.01
  20   1    -0.00   0.00  -0.00     0.02   0.03   0.04    -0.01  -0.02  -0.02
  21   1     0.01   0.03   0.03    -0.02  -0.05  -0.03     0.01   0.01   0.01
  22   1    -0.05   0.01   0.01     0.06  -0.02  -0.01    -0.02   0.01   0.00
  23   1     0.01   0.00  -0.00    -0.05   0.04  -0.03     0.02  -0.01   0.01
  24   1     0.02   0.01  -0.01    -0.15   0.04   0.04     0.05  -0.01  -0.01
  25   1     0.01  -0.01  -0.00    -0.02   0.12   0.02     0.01  -0.04  -0.01
  26   1    -0.01   0.01  -0.00     0.07  -0.03  -0.03    -0.02   0.01   0.01
  27   1     0.00  -0.01  -0.00    -0.04   0.06  -0.05     0.01  -0.02   0.01
  28   1    -0.00  -0.02   0.01     0.04   0.05  -0.03    -0.01  -0.02   0.01
  29   7    -0.00   0.02  -0.00     0.01   0.07   0.07     0.04   0.21   0.21
  30   6    -0.00   0.01  -0.01     0.01   0.02  -0.01     0.03   0.05  -0.02
  31   7     0.00  -0.01  -0.00     0.06   0.02  -0.09     0.18   0.08  -0.25
  32   6    -0.00  -0.00  -0.01     0.12  -0.03   0.02     0.36  -0.09   0.07
  33   6     0.00   0.01  -0.00    -0.02  -0.04   0.01    -0.08  -0.13   0.01
  34   6     0.00   0.00   0.00     0.01   0.01  -0.02     0.04   0.03  -0.07
  35   6     0.00   0.00   0.00     0.01   0.01   0.00     0.02   0.03   0.01
  36   6     0.00  -0.00  -0.01     0.02  -0.00  -0.00     0.05  -0.01  -0.01
  37   6    -0.01  -0.01  -0.00    -0.06  -0.05  -0.09    -0.18  -0.13  -0.26
  38   6    -0.01   0.01   0.01    -0.07   0.00   0.01    -0.20   0.02   0.05
  39   6     0.01   0.00  -0.00    -0.05  -0.01   0.08    -0.14  -0.02   0.25
  40   1     0.00  -0.00  -0.00     0.01   0.01   0.01     0.04   0.06   0.04
  41   1    -0.00   0.00  -0.01     0.05  -0.01   0.03     0.15  -0.03   0.09
  42   1     0.00  -0.00   0.00    -0.03   0.06   0.00    -0.11   0.17   0.01
  43   1     0.00   0.00  -0.00    -0.06  -0.06   0.01    -0.18  -0.18   0.03
  44   1     0.00  -0.00   0.00     0.01   0.01  -0.02     0.03   0.05  -0.08
  45   1     0.00  -0.00  -0.00    -0.01   0.02   0.01    -0.03   0.06   0.03
  46   1     0.00   0.00   0.00     0.01   0.01   0.02     0.03   0.02   0.05
  47   1    -0.00   0.01  -0.00    -0.01   0.01  -0.00    -0.04   0.04   0.00
  48   1     0.00  -0.01   0.00     0.02  -0.02  -0.01     0.04  -0.03  -0.02
  49   1     0.00   0.00   0.00     0.02   0.02   0.01     0.04   0.03   0.03
  50   1     0.00  -0.01   0.00    -0.01  -0.02   0.00    -0.03  -0.06   0.01
  51   1    -0.01  -0.01  -0.00    -0.03  -0.03  -0.03    -0.10  -0.09  -0.09
  52   1    -0.01   0.01   0.01    -0.04  -0.00   0.01    -0.12  -0.00   0.03
  53   1     0.00  -0.00   0.00     0.02   0.01   0.01     0.06   0.03   0.04
  54   1     0.00  -0.01   0.00    -0.02  -0.02   0.01    -0.04  -0.06   0.04
  55   1     0.01   0.00  -0.00    -0.01   0.00   0.02    -0.01   0.00   0.06
  56   6     0.04   0.54  -0.16     0.01   0.11  -0.09     0.03  -0.01  -0.11
  57   8    -0.11  -0.15  -0.10    -0.05  -0.02  -0.06    -0.06   0.01  -0.06
  58   6    -0.17  -0.31   0.57    -0.02   0.03   0.08    -0.00   0.04  -0.04
  59   8     0.28  -0.25  -0.03    -0.00   0.01  -0.03    -0.03   0.04  -0.01
                     43                     44                     45
                        a                      a                      a 
 Frequencies --   518.9183               522.3134               525.0658
 Red. masses --    14.6575                 7.6110                15.8361
 Frc consts  --     0.0000                 0.0000                 0.0000
 IR Inten    --     5.7233                 1.0305                 4.2335
 Raman Activ --     0.0000                 0.0000                 0.0000
 Depolar     --     0.0000                 0.0000                 0.0000
 Atom AN      X      Y      Z        X      Y      Z        X      Y      Z
   1  28    -0.08   0.21  -0.27     0.03  -0.07   0.11    -0.10   0.20  -0.28
   2   7    -0.03   0.01   0.03     0.06  -0.01  -0.07     0.06  -0.01  -0.09
   3   6    -0.01   0.01  -0.03     0.01  -0.03   0.04     0.01  -0.04   0.01
   4   7     0.04   0.01   0.07    -0.06  -0.05  -0.09    -0.04  -0.07  -0.07
   5   6     0.08   0.02  -0.08    -0.11  -0.08   0.09    -0.10  -0.11   0.06
   6   6    -0.11   0.03  -0.03     0.16  -0.05   0.05     0.14  -0.04   0.04
   7   6     0.01  -0.09   0.08    -0.01   0.13  -0.11    -0.01   0.12  -0.10
   8   6     0.05  -0.02  -0.08    -0.07   0.03   0.14    -0.07   0.03   0.14
[...]
   6   6     0.00   0.00   0.00     0.00   0.01   0.00     0.00  -0.12  -0.06
   7   6    -0.00   0.00  -0.00    -0.00   0.00  -0.00    -0.01  -0.14   0.08
   8   6    -0.00  -0.00   0.00    -0.00  -0.00   0.00    -0.11  -0.08   0.04
   9   6    -0.00  -0.00  -0.00    -0.00  -0.01  -0.01    -0.01  -0.01  -0.01
  10   6    -0.00   0.00  -0.00    -0.00   0.00  -0.00     0.00  -0.00   0.00
  11   6     0.00   0.00  -0.00     0.00   0.00  -0.00    -0.00  -0.01   0.04
  12   6    -0.00   0.00   0.00     0.00  -0.00  -0.00    -0.00   0.00   0.00
  13   1     0.01  -0.00  -0.00     0.01  -0.00  -0.01    -0.08   0.00   0.05
  14   1    -0.00  -0.00  -0.00    -0.00  -0.00   0.00     0.05   0.03   0.03
  15   1     0.01  -0.01  -0.00     0.00  -0.00  -0.00    -0.18   0.21   0.03
  16   1    -0.01  -0.01  -0.01    -0.01  -0.02  -0.02     0.16   0.23   0.19
  17   1    -0.00  -0.00  -0.00    -0.00   0.00  -0.00     0.17   0.25   0.23
  18   1     0.00  -0.00   0.01     0.00  -0.00   0.01    -0.16   0.22  -0.52
  19   1     0.00   0.00   0.00    -0.00  -0.00  -0.00     0.05   0.09   0.09
  20   1     0.01   0.00  -0.01     0.02   0.01  -0.01     0.34   0.17  -0.23
  21   1    -0.00   0.00   0.00     0.00  -0.00  -0.00     0.01  -0.01  -0.00
  22   1     0.00   0.00   0.00     0.01   0.02   0.02     0.01   0.04   0.04
  23   1     0.00  -0.00   0.00     0.00  -0.00   0.00    -0.00   0.00  -0.00
  24   1    -0.00   0.00  -0.00     0.00   0.00  -0.00     0.00   0.00  -0.00
  25   1     0.00  -0.00   0.00     0.00  -0.00   0.01    -0.01   0.01  -0.13
  26   1    -0.00  -0.00   0.00    -0.00  -0.01   0.00     0.03   0.03  -0.01
  27   1     0.00  -0.00  -0.00    -0.01   0.02   0.01     0.00  -0.02  -0.01
  28   1     0.00   0.00   0.00    -0.00  -0.00  -0.01    -0.00   0.00  -0.00
  29   7    -0.00  -0.00   0.00    -0.00   0.00   0.00     0.00   0.00  -0.00
  30   6     0.01  -0.00  -0.00     0.00  -0.00  -0.00    -0.00  -0.00   0.00
  31   7    -0.00  -0.00  -0.00     0.00   0.00   0.00     0.00   0.00   0.00
  32   6    -0.02   0.00  -0.02     0.01   0.00   0.01     0.00   0.00   0.00
  33   6    -0.09   0.07   0.03     0.02   0.00   0.00     0.00   0.01   0.00
  34   6    -0.06  -0.02   0.07    -0.02  -0.00   0.02    -0.00   0.00   0.00
  35   6     0.02  -0.06  -0.09    -0.01   0.01   0.01    -0.00   0.00   0.00
  36   6     0.14  -0.11  -0.01    -0.02   0.01   0.00    -0.00   0.00   0.00
  37   6    -0.00  -0.00   0.00     0.01  -0.02   0.02    -0.00  -0.00   0.00
  38   6     0.00  -0.00   0.01     0.06  -0.17   0.19     0.00  -0.00   0.00
  39   6    -0.01  -0.00   0.00    -0.02  -0.02   0.02     0.02   0.00  -0.00
  40   1     0.05   0.03   0.08    -0.04  -0.02  -0.06    -0.00  -0.00  -0.00
  41   1     0.01  -0.02  -0.01    -0.01   0.02   0.01     0.00  -0.00  -0.00
  42   1     0.04   0.03   0.00    -0.06  -0.02  -0.00    -0.02  -0.01  -0.00
  43   1     0.26  -0.29  -0.09    -0.01   0.02   0.00     0.02  -0.02  -0.01
  44   1     0.17  -0.19  -0.05     0.05  -0.06  -0.02     0.01  -0.01  -0.00
  45   1     0.03   0.28  -0.23     0.01   0.07  -0.06     0.00   0.01  -0.01
  46   1    -0.11   0.10   0.03     0.04  -0.04  -0.01     0.01  -0.01  -0.00
  47   1     0.04   0.08   0.30    -0.00   0.00  -0.00    -0.00  -0.00  -0.01
  48   1     0.05   0.01   0.02    -0.01  -0.00  -0.00    -0.00  -0.00  -0.00
  49   1    -0.54   0.38   0.00     0.06  -0.05   0.00     0.00  -0.00   0.00
  50   1     0.00   0.00   0.00     0.01   0.02   0.00     0.00   0.00   0.00
  51   1    -0.00  -0.00   0.00    -0.02   0.04  -0.05    -0.00   0.00  -0.00
  52   1    -0.01   0.02  -0.02    -0.28   0.67  -0.56    -0.00   0.01  -0.00
  53   1     0.00  -0.00  -0.01     0.06  -0.06  -0.14     0.00  -0.00  -0.01
  54   1     0.03  -0.00  -0.00     0.10  -0.01  -0.00    -0.06   0.00   0.00
  55   1    -0.00   0.01  -0.01    -0.03   0.07  -0.06     0.00  -0.00   0.00
  56   6    -0.00   0.00  -0.00     0.00   0.00   0.00    -0.00   0.00   0.00
  57   8    -0.00  -0.00  -0.00    -0.00  -0.00  -0.00     0.00  -0.00  -0.00
  58   6     0.00  -0.00   0.00     0.00  -0.00   0.00    -0.00   0.00  -0.00
  59   8    -0.00   0.00  -0.00    -0.00   0.00  -0.00     0.00  -0.00   0.00
                    163                    164                    165
                        a                      a                      a 
 Frequencies --  2982.9895              2985.1716              2986.2287
 Red. masses --     1.6794                 1.7652                 1.5792
 Frc consts  --     0.0000                 0.0000                 0.0000
 IR Inten    --    15.2142               159.7848                69.2235
 Raman Activ --     0.0000                 0.0000                 0.0000
 Depolar     --     0.0000                 0.0000                 0.0000
 Atom AN      X      Y      Z        X      Y      Z        X      Y      Z
   1  28     0.00   0.00   0.00    -0.00   0.00  -0.00     0.00   0.00  -0.00
   2   7    -0.00  -0.00  -0.00     0.00  -0.00   0.00    -0.00   0.00   0.00
   3   6    -0.00   0.00  -0.00    -0.00   0.00   0.00     0.00  -0.00   0.00
   4   7     0.00  -0.00   0.00     0.00  -0.00  -0.00    -0.00  -0.00  -0.00
   5   6     0.00  -0.00  -0.00     0.00   0.00   0.00    -0.00  -0.00   0.00
   6   6    -0.00  -0.01  -0.01     0.02   0.00   0.01    -0.01  -0.00  -0.00
   7   6    -0.00  -0.01   0.00     0.00  -0.00   0.01    -0.00  -0.00  -0.00
   8   6    -0.01  -0.00   0.00    -0.01  -0.01   0.00    -0.00   0.00   0.00
   9   6     0.00   0.00   0.00     0.00  -0.00  -0.00    -0.00  -0.00  -0.00
  10   6     0.00   0.00  -0.00    -0.00   0.00  -0.00     0.00  -0.00   0.00
  11   6     0.00   0.00  -0.00     0.00   0.00  -0.01    -0.00  -0.01   0.04
  12   6     0.00  -0.00  -0.00     0.00  -0.00  -0.00     0.00   0.00   0.00
  13   1    -0.01   0.00   0.01    -0.00   0.00   0.00     0.00  -0.00  -0.00
  14   1     0.01   0.00   0.00    -0.00  -0.00  -0.00     0.00   0.00   0.00
  15   1    -0.01   0.01   0.00    -0.03   0.04   0.01     0.01  -0.01  -0.00
  16   1     0.02   0.03   0.02    -0.03  -0.05  -0.04     0.01   0.02   0.02
  17   1     0.01   0.02   0.02     0.00   0.00   0.00     0.00   0.00   0.00
  18   1    -0.01   0.01  -0.03    -0.01   0.01  -0.02     0.00  -0.00   0.00
  19   1     0.00   0.01   0.01     0.01   0.01   0.01    -0.00  -0.01  -0.00
  20   1     0.01   0.01  -0.01     0.01   0.01  -0.01     0.01   0.00  -0.00
  21   1    -0.00   0.00   0.00    -0.00   0.00   0.00     0.00  -0.00  -0.00
  22   1    -0.00  -0.01  -0.01     0.00   0.01   0.01     0.00   0.00   0.00
  23   1    -0.00   0.00  -0.00     0.00  -0.00   0.00    -0.00   0.00  -0.00
  24   1    -0.00  -0.00   0.00    -0.00  -0.00   0.00     0.00   0.00  -0.01
  25   1     0.00  -0.00   0.01     0.00  -0.00   0.03    -0.01   0.01  -0.14
  26   1    -0.00  -0.00   0.00    -0.01  -0.01   0.00     0.02   0.02  -0.01
  27   1    -0.00   0.02   0.01    -0.00   0.00   0.00     0.00  -0.01  -0.00
  28   1    -0.00  -0.00  -0.00     0.00  -0.00   0.00    -0.00   0.00  -0.01
  29   7    -0.01   0.00   0.01    -0.00   0.00   0.00    -0.00  -0.00   0.00
  30   6     0.00   0.00  -0.00     0.00  -0.00  -0.00     0.00  -0.00  -0.00
  31   7     0.00   0.00  -0.00     0.00   0.00   0.00    -0.00  -0.00  -0.00
  32   6    -0.00  -0.00  -0.00     0.03  -0.01   0.02    -0.02  -0.03  -0.04
  33   6     0.00  -0.00  -0.00     0.12   0.01  -0.01    -0.03  -0.18  -0.04
  34   6     0.01  -0.00  -0.01     0.10  -0.02  -0.10     0.02  -0.06   0.01
  35   6     0.01  -0.01   0.00     0.07  -0.10  -0.10    -0.00  -0.03  -0.08
  36   6    -0.00   0.00  -0.00     0.06  -0.05  -0.00     0.02  -0.02  -0.00
  37   6    -0.00   0.00  -0.00     0.00  -0.00   0.00    -0.00  -0.01   0.00
  38   6    -0.00   0.01  -0.05     0.01  -0.02   0.02     0.00  -0.01   0.01
  39   6    -0.24  -0.01   0.02     0.01  -0.00   0.00     0.00  -0.00   0.00
  40   1     0.01   0.00   0.01    -0.06  -0.03  -0.09     0.08   0.04   0.12
  41   1     0.00  -0.00  -0.00    -0.03   0.07   0.04    -0.03   0.05   0.02
  42   1     0.00  -0.00  -0.00    -0.36  -0.15  -0.01     0.55   0.20   0.00
  43   1    -0.01   0.02   0.00    -0.08   0.11   0.03    -0.43   0.45   0.15
  44   1    -0.02   0.02   0.01    -0.33   0.36   0.11    -0.09   0.09   0.03
  45   1    -0.00  -0.02   0.01    -0.02  -0.29   0.23     0.02   0.11  -0.10
  46   1    -0.02   0.02   0.01    -0.27   0.27   0.09    -0.02   0.02  -0.00
  47   1    -0.00  -0.00  -0.01     0.05   0.07   0.28     0.04   0.08   0.29
  48   1     0.00   0.00   0.00     0.02  -0.00   0.00     0.02   0.01   0.01
  49   1     0.01  -0.01  -0.00    -0.24   0.17  -0.00    -0.11   0.08  -0.00
  50   1     0.00   0.00   0.00     0.00  -0.00   0.00     0.01   0.02   0.00
  51   1     0.01  -0.01   0.01    -0.00   0.01  -0.01    -0.00   0.00  -0.00
  52   1     0.03  -0.06   0.04    -0.03   0.06  -0.05    -0.01   0.03  -0.03
  53   1    -0.04   0.03   0.15     0.00  -0.00  -0.00     0.01  -0.01  -0.02
  54   1     0.94  -0.05  -0.02    -0.03   0.00   0.00    -0.01   0.00   0.00
  55   1    -0.07   0.09  -0.08    -0.00   0.01  -0.01    -0.00   0.00  -0.00
  56   6    -0.00  -0.00  -0.00    -0.00   0.00  -0.00    -0.00   0.00  -0.00
  57   8    -0.00   0.00  -0.00     0.00  -0.00   0.00     0.00  -0.00  -0.00
  58   6    -0.00   0.00  -0.00     0.00  -0.00   0.00     0.00  -0.00   0.00
  59   8     0.00  -0.00   0.00    -0.00   0.00  -0.00    -0.00   0.00  -0.00
                    166                    167                    168
                        a                      a                      a 
 Frequencies --  2986.4491              2987.7621              2992.5541
 Red. masses --     1.8325                 1.5578                 1.5420
 Frc consts  --     0.0000                 0.0000                 0.0000
 IR Inten    --    23.7629                49.2259                48.9708
 Raman Activ --     0.0000                 0.0000                 0.0000
 Depolar     --     0.0000                 0.0000                 0.0000
 Atom AN      X      Y      Z        X      Y      Z        X      Y      Z
   1  28     0.00   0.00  -0.00     0.00   0.00   0.00     0.00  -0.00  -0.00
   2   7    -0.00  -0.00  -0.00    -0.00  -0.00  -0.00     0.00  -0.00  -0.00
   3   6     0.00   0.00   0.00     0.00   0.00   0.00    -0.00   0.00  -0.00
   4   7    -0.00  -0.00  -0.00     0.00   0.00  -0.00     0.00  -0.00  -0.00
   5   6    -0.01   0.00   0.01     0.04   0.01  -0.01     0.00   0.00  -0.00
   6   6    -0.04   0.02  -0.01     0.17   0.03   0.10     0.00   0.00   0.00
   7   6    -0.00   0.02  -0.02     0.02  -0.02   0.05     0.00   0.00   0.00
   8   6     0.01   0.01  -0.01     0.00  -0.02  -0.04     0.00   0.01   0.01
   9   6     0.00   0.00   0.00     0.00  -0.00  -0.00    -0.00  -0.00  -0.00
  10   6     0.00  -0.00   0.02     0.01  -0.00   0.01     0.00   0.00  -0.00
  11   6    -0.01  -0.06   0.26    -0.00  -0.01   0.05    -0.00  -0.00  -0.00
  12   6     0.00   0.01   0.03     0.00   0.00   0.01    -0.00   0.00   0.00
  13   1     0.04  -0.00  -0.03    -0.09   0.01   0.06    -0.00   0.00   0.00
  14   1    -0.01  -0.00  -0.00    -0.04  -0.03  -0.03    -0.00  -0.00  -0.00
  15   1     0.09  -0.13  -0.02    -0.28   0.40   0.08    -0.00   0.01   0.00
  16   1     0.04   0.07   0.06    -0.33  -0.52  -0.42    -0.01  -0.01  -0.01
  17   1    -0.02  -0.03  -0.03    -0.01  -0.02  -0.01    -0.00  -0.00  -0.00
  18   1     0.03  -0.05   0.10    -0.05   0.09  -0.19    -0.00   0.00  -0.00
  19   1     0.00   0.01   0.00     0.08   0.12   0.09    -0.01  -0.02  -0.02
  20   1    -0.05  -0.03   0.04    -0.09  -0.05   0.05     0.00   0.00  -0.00
  21   1     0.00  -0.00  -0.00    -0.01   0.01   0.00     0.00  -0.00  -0.00
  22   1    -0.00  -0.00  -0.00    -0.00  -0.01  -0.01     0.00   0.00   0.00
  23   1    -0.02   0.01  -0.01    -0.02   0.01  -0.01    -0.00  -0.00  -0.00
  24   1     0.00   0.01  -0.06     0.00   0.00  -0.01    -0.00  -0.00   0.00
  25   1    -0.09   0.06  -0.88    -0.02   0.01  -0.18     0.00  -0.00   0.00
  26   1     0.13   0.14  -0.04     0.03   0.04  -0.01     0.00   0.00  -0.00
  27   1     0.01  -0.04  -0.02     0.00  -0.01  -0.00     0.00  -0.00  -0.00
  28   1    -0.01   0.01  -0.06    -0.00   0.00  -0.01     0.00  -0.00   0.00
  29   7    -0.00  -0.00   0.00     0.00  -0.00   0.00     0.00   0.00  -0.00
  30   6    -0.00  -0.00  -0.00    -0.00   0.00   0.00    -0.00   0.00   0.00
  31   7     0.00   0.00   0.00    -0.00  -0.00  -0.00     0.00  -0.00   0.00
  32   6     0.00   0.00   0.01    -0.00   0.00  -0.00    -0.00   0.01   0.00
  33   6     0.01   0.03   0.01    -0.01  -0.00   0.00    -0.00   0.04   0.01
  34   6     0.00   0.01  -0.01    -0.01   0.00   0.01    -0.01   0.05  -0.04
  35   6     0.00  -0.00   0.01    -0.00   0.01   0.01    -0.13   0.06  -0.14
  36   6    -0.00   0.00   0.00    -0.01   0.00   0.00    -0.04   0.03  -0.01
  37   6     0.00   0.00   0.00    -0.00   0.00  -0.00    -0.00   0.00  -0.00
  38   6     0.00  -0.00  -0.00    -0.00   0.00  -0.00     0.00   0.00  -0.01
  39   6    -0.00  -0.00   0.00    -0.01   0.00  -0.00    -0.00   0.00  -0.00
  40   1    -0.02  -0.01  -0.03     0.01   0.00   0.01     0.00   0.00   0.01
  41   1     0.00  -0.00  -0.00     0.00  -0.01  -0.00     0.02  -0.03  -0.02
  42   1    -0.11  -0.04  -0.00     0.03   0.01   0.00    -0.08  -0.03  -0.00
  43   1     0.06  -0.06  -0.02     0.00  -0.00  -0.00     0.09  -0.10  -0.03
  44   1    -0.01   0.01   0.00     0.02  -0.03  -0.01     0.02  -0.02  -0.01
  45   1    -0.00  -0.03   0.03     0.00   0.02  -0.02    -0.02  -0.17   0.14
  46   1    -0.01   0.01   0.00     0.02  -0.02  -0.01     0.39  -0.40  -0.16
  47   1    -0.00  -0.01  -0.02    -0.00  -0.01  -0.03     0.07   0.20   0.68
  48   1     0.00   0.00  -0.00    -0.00   0.00  -0.00     0.01   0.01   0.01
  49   1     0.00  -0.00  -0.00     0.02  -0.01   0.00     0.14  -0.10  -0.00
  50   1    -0.00  -0.00  -0.00     0.00   0.00   0.00    -0.00  -0.00  -0.00
  51   1    -0.00   0.00  -0.00     0.00  -0.00   0.00     0.00  -0.00   0.00
  52   1    -0.00   0.01  -0.01     0.00  -0.01   0.01     0.01  -0.02   0.01
  53   1    -0.00   0.00   0.01    -0.00   0.00   0.01    -0.01   0.01   0.03
  54   1     0.02  -0.00   0.00     0.02  -0.00  -0.00     0.02  -0.00  -0.00
  55   1    -0.00   0.00  -0.00    -0.00   0.00  -0.00    -0.00  -0.00   0.00
  56   6     0.00  -0.00   0.00     0.00   0.00   0.00    -0.00  -0.00  -0.00
  57   8    -0.00   0.00  -0.00    -0.00  -0.00  -0.00     0.00   0.00   0.00
  58   6     0.00  -0.00   0.00    -0.00   0.00  -0.00    -0.00   0.00  -0.00
  59   8    -0.00   0.00  -0.00     0.00  -0.00   0.00     0.00  -0.00   0.00
                    169                    170                    171
                        a                      a                      a 
 Frequencies --  2996.8906              2999.9028              3005.1193
 Red. masses --     1.6195                 1.6441                 1.6367
 Frc consts  --     0.0000                 0.0000                 0.0000
 IR Inten    --    46.9227                54.1227                47.3313
 Raman Activ --     0.0000                 0.0000                 0.0000
 Depolar     --     0.0000                 0.0000                 0.0000
 Atom AN      X      Y      Z        X      Y      Z        X      Y      Z
   1  28    -0.00   0.00   0.00    -0.00   0.00   0.00     0.00  -0.00   0.00
   2   7    -0.00   0.00   0.00     0.00  -0.00  -0.00     0.00  -0.00   0.00
   3   6     0.00  -0.00  -0.00    -0.00   0.00   0.00     0.00  -0.00   0.00
   4   7     0.00  -0.00   0.00     0.00  -0.00  -0.00    -0.00  -0.00   0.00
   5   6    -0.00  -0.01  -0.01     0.00   0.00   0.00     0.00   0.00  -0.00
   6   6    -0.03  -0.03  -0.03     0.00   0.00   0.00     0.00  -0.00   0.00
   7   6    -0.02  -0.01  -0.05     0.00   0.00   0.00     0.00  -0.00   0.00
   8   6    -0.03  -0.13  -0.17     0.00   0.01   0.01    -0.00   0.00   0.00
   9   6    -0.00  -0.02  -0.03     0.00   0.00   0.00     0.00  -0.00  -0.00
  10   6    -0.00   0.00  -0.00     0.00  -0.00   0.00     0.01   0.00  -0.00
  11   6     0.00   0.01  -0.02     0.00   0.00   0.00     0.16   0.18  -0.03
  12   6    -0.00  -0.00  -0.00    -0.00   0.00   0.00    -0.00   0.02   0.00
  13   1    -0.01  -0.00   0.01     0.00  -0.00  -0.00    -0.01   0.00   0.00
  14   1     0.03   0.02   0.02    -0.00  -0.00  -0.00    -0.00  -0.00  -0.00
  15   1     0.01  -0.02  -0.01     0.00  -0.00   0.00    -0.01   0.01   0.00
  16   1     0.08   0.12   0.10    -0.01  -0.01  -0.01    -0.00  -0.00  -0.00
  17   1     0.05   0.08   0.06    -0.00  -0.01  -0.00     0.00   0.00   0.00
  18   1     0.03  -0.06   0.11    -0.00   0.00  -0.01    -0.00   0.00  -0.01
  19   1     0.38   0.62   0.47    -0.03  -0.04  -0.03    -0.00  -0.00  -0.00
  20   1    -0.26  -0.15   0.15     0.02   0.01  -0.01     0.00   0.00  -0.00
  21   1    -0.02   0.00   0.00    -0.00   0.00   0.00    -0.00   0.00   0.00
  22   1     0.02   0.08   0.08    -0.00  -0.01  -0.01    -0.00  -0.00  -0.00
  23   1     0.00  -0.00   0.00    -0.00   0.00  -0.00    -0.03   0.01  -0.01
  24   1    -0.00  -0.00   0.01     0.00   0.00  -0.00    -0.00  -0.00   0.02
  25   1     0.01  -0.00   0.06    -0.00   0.00  -0.01     0.00   0.04  -0.22
  26   1    -0.01  -0.02   0.01    -0.00  -0.01   0.00    -0.57  -0.67   0.34
  27   1    -0.00   0.00   0.00     0.00  -0.00  -0.00     0.02  -0.05  -0.03
  28   1     0.00  -0.00   0.00    -0.00   0.00  -0.00     0.00   0.00   0.01
  29   7     0.00   0.00   0.00    -0.00   0.00   0.00     0.00  -0.00  -0.00
  30   6    -0.00  -0.00  -0.00     0.00   0.00  -0.00    -0.00  -0.00  -0.00
  31   7    -0.00   0.00  -0.00    -0.00  -0.00  -0.00     0.00   0.00   0.00
  32   6    -0.00  -0.00  -0.00     0.00   0.00   0.00    -0.00   0.00  -0.00
  33   6     0.00  -0.00  -0.00     0.00   0.00   0.00    -0.00  -0.00   0.00
  34   6     0.00   0.00  -0.00     0.00   0.00  -0.00    -0.00   0.00   0.00
  35   6    -0.00   0.00  -0.01    -0.00   0.00  -0.00    -0.00   0.00   0.00
  36   6    -0.00   0.00  -0.00    -0.00   0.00   0.00    -0.00   0.00  -0.00
  37   6     0.00   0.00   0.00     0.00   0.01   0.01    -0.00  -0.00  -0.00
  38   6    -0.01   0.00   0.02    -0.08   0.09   0.20     0.00  -0.00  -0.00
  39   6    -0.00  -0.00   0.00    -0.04  -0.00   0.01    -0.00   0.00  -0.00
  40   1     0.00   0.00   0.00    -0.00  -0.00  -0.01     0.00   0.00   0.00
  41   1    -0.00   0.00   0.00     0.00  -0.00  -0.00     0.00  -0.00  -0.00
  42   1     0.00   0.00  -0.00    -0.01  -0.01  -0.00     0.00   0.00   0.00
  43   1    -0.00   0.00   0.00     0.00  -0.00  -0.00     0.00  -0.00  -0.00
  44   1    -0.00   0.00   0.00    -0.00   0.00   0.00     0.00  -0.00  -0.00
  45   1    -0.00  -0.01   0.00    -0.00  -0.01   0.01     0.00   0.00  -0.00
  46   1     0.01  -0.01  -0.01     0.00  -0.01  -0.00     0.00  -0.00  -0.00
  47   1     0.00   0.01   0.03     0.00   0.00   0.01    -0.00  -0.00  -0.00
  48   1    -0.00   0.00  -0.00    -0.00  -0.00  -0.00     0.00   0.00   0.00
  49   1     0.01  -0.00   0.00     0.00  -0.00  -0.00     0.00  -0.00  -0.00
  50   1    -0.00  -0.00   0.00    -0.01  -0.03  -0.00     0.00   0.00   0.00
  51   1    -0.00   0.00  -0.00    -0.01   0.01  -0.01     0.00  -0.00   0.00
  52   1     0.00  -0.00   0.00     0.05  -0.14   0.15     0.00  -0.00   0.00
  53   1     0.02  -0.01  -0.06     0.24  -0.19  -0.88    -0.00   0.00   0.01
  54   1     0.00  -0.00   0.00     0.14  -0.01  -0.00    -0.00   0.00  -0.00
  55   1    -0.00   0.00  -0.00    -0.01   0.02  -0.01     0.00  -0.00   0.00
  56   6    -0.00   0.00  -0.00    -0.00   0.00  -0.00     0.00  -0.00   0.00
  57   8     0.00  -0.00   0.00     0.00  -0.00   0.00    -0.00   0.00  -0.00
  58   6    -0.00   0.00  -0.00     0.00  -0.00   0.00    -0.00   0.00  -0.00
  59   8     0.00  -0.00   0.00    -0.00   0.00  -0.00     0.00  -0.00   0.00
