      -----------------------------------------------------------      
     |                   =====================                   |     
     |                           x T B                           |     
     |                   =====================                   |     
     |                         S. Grimme                         |     
     |          Mulliken Center for Theoretical Chemistry        |     
     |                    University of Bonn                     |     
      -----------------------------------------------------------      

   * xtb version 6.5.0 (97a52f5) compiled by 'conda@d2599ee0d4f4' on 2022-05-15

   xtb is free software: you can redistribute it and/or modify it under
   the terms of the GNU Lesser General Public License as published by
   the Free Software Foundation, either version 3 of the License, or
   (at your option) any later version.
   
   xtb is distributed in the hope that it will be useful,
   but WITHOUT ANY WARRANTY; without even the implied warranty of
   MERCHANTABILITY or FITNESS FOR A PARTICULAR PURPOSE.  See the
   GNU Lesser General Public License for more details.
   
   Cite this work as:
   * C. Bannwarth, E. Caldeweyher, S. Ehlert, A. Hansen, P. Pracht,
     J. Seibert, S. Spicher, S. Grimme, WIREs Comput. Mol. Sci., 2020, 11,
     e01493. DOI: 10.1002/wcms.1493
   
   for GFN2-xTB:
   * C. Bannwarth, S. Ehlert and S. Grimme., J. Chem. Theory Comput., 2019,
     15, 1652-1671. DOI: 10.1021/acs.jctc.8b01176
   for GFN1-xTB:
   * S. Grimme, C. Bannwarth, P. Shushkov, J. Chem. Theory Comput., 2017,
     13, 1989-2009. DOI: 10.1021/acs.jctc.7b00118
   for GFN0-xTB:
   * P. Pracht, E. Caldeweyher, S. Ehlert, S. Grimme, ChemRxiv, 2019, preprint.
     DOI: 10.26434/chemrxiv.8326202.v1
   for GFN-FF:
   * S. Spicher and S. Grimme, Angew. Chem. Int. Ed., 2020, 59, 15665-15673.
     DOI: 10.1002/anie.202004239
   
   for ALPB and GBSA implicit solvation:
   * S. Ehlert, M. Stahn, S. Spicher, S. Grimme, J. Chem. Theory Comput.,
     2021, 17, 4250-4261. DOI: 10.1021/acs.jctc.1c00471
   
   for DFT-D4:
   * E. Caldeweyher, C. Bannwarth and S. Grimme, J. Chem. Phys., 2017,
     147, 034112. DOI: 10.1063/1.4993215
   * E. Caldeweyher, S. Ehlert, A. Hansen, H. Neugebauer, S. Spicher,
     C. Bannwarth and S. Grimme, J. Chem. Phys., 2019, 150, 154122.
     DOI: 10.1063/1.5090222
   * E. Caldeweyher, J.-M. Mewes, S. Ehlert and S. Grimme, Phys. Chem. Chem. Phys.
     2020, 22, 8499-8512. DOI: 10.1039/D0CP00502A
   
   for sTDA-xTB:
   * S. Grimme and C. Bannwarth, J. Chem. Phys., 2016, 145, 054103.
     DOI: 10.1063/1.4959605
   
   in the mass-spec context:
   * V. Asgeirsson, C. Bauer and S. Grimme, Chem. Sci., 2017, 8, 4879.
     DOI: 10.1039/c7sc00601b
   * J. Koopman and S. Grimme, ACS Omega 2019, 4, 12, 15120-15133.
     DOI: 10.1021/acsomega.9b02011
   
   for metadynamics refer to:
   * S. Grimme, J. Chem. Theory Comput., 2019, 155, 2847-2862
     DOI: 10.1021/acs.jctc.9b00143
   
   for SPH calculations refer to:
   * S. Spicher and S. Grimme, J. Chem. Theory Comput., 2021, 17, 1701-1714
     DOI: 10.1021/acs.jctc.0c01306
   
   with help from (in alphabetical order)
   P. Atkinson, C. Bannwarth, F. Bohle, G. Brandenburg, E. Caldeweyher
   M. Checinski, S. Dohm, S. Ehlert, S. Ehrlich, I. Gerasimov, C. Hölzer
   A. Katbashev, J. Koopman, C. Lavigne, S. Lehtola, F. März, M. Müller,
   F. Musil, H. Neugebauer, J. Pisarek, C. Plett, P. Pracht, F. Pultar,
   J. Seibert, P. Shushkov, S. Spicher, M. Stahn, M. Steiner, T. Strunk,
   J. Stückrath, T. Rose, and J. Unsleber
   
 * started run on 2022/05/27 at 18:09:15.132     

           -------------------------------------------------
          |                Calculation Setup                |
           -------------------------------------------------

          program call               : xtb struc.xyz --gfn2 --hess
          hostname                   : fedora
          coordinate file            : struc.xyz
          omp threads                :                     1

   ID    Z sym.   atoms
    1   28 Ni     1
    2    7 N      2, 4, 29, 31
    3    6 C      3, 5-12, 30, 32-39, 56, 58
    4    1 H      13-28, 40-55
    5    8 O      57, 59

molecular fragmentation (1/2 indicates fragments):
11111111111111111111111111111111111111111111111111111111122
# atoms in fragment 1/2:    57     2
 fragment masses (1/2) :      391.18       28.01
CMA distance (Bohr)    :   7.456
constraining FC (au)   :  0.0500

           -------------------------------------------------
          |                 G F N 2 - x T B                 |
           -------------------------------------------------

        Reference                      10.1021/acs.jctc.8b01176
      * Hamiltonian:
        H0-scaling (s, p, d)           1.850000    2.230000    2.230000
        zeta-weighting                 0.500000
      * Dispersion:
        s8                             2.700000
        a1                             0.520000
        a2                             5.000000
        s9                             5.000000
      * Repulsion:
        kExp                           1.500000    1.000000
        rExp                           1.000000
      * Coulomb:
        alpha                          2.000000
        third order                    shell-resolved
        anisotropic                    true
        a3                             3.000000
        a5                             4.000000
        cn-shift                       1.200000
        cn-exp                         4.000000
        max-rad                        5.000000


          ...................................................
          :                      SETUP                      :
          :.................................................:
          :  # basis functions                 146          :
          :  # atomic orbitals                 145          :
          :  # shells                           87          :
          :  # electrons                       154          :
          :  max. iterations                   250          :
          :  Hamiltonian                  GFN2-xTB          :
          :  restarted?                      false          :
          :  GBSA solvation                  false          :
          :  PC potential                    false          :
          :  electronic temp.          300.0000000     K    :
          :  accuracy                    1.0000000          :
          :  -> integral cutoff          0.2500000E+02      :
          :  -> integral neglect         0.1000000E-07      :
          :  -> SCF convergence          0.1000000E-05 Eh   :
          :  -> wf. convergence          0.1000000E-03 e    :
          :  Broyden damping             0.4000000          :
          ...................................................

 iter      E             dE          RMSdq      gap      omega  full diag
   1    -84.6594700 -0.846595E+02  0.460E+00    3.90       0.0  T
   2    -84.8745325 -0.215063E+00  0.260E+00    3.06       1.0  T
   3    -84.8826656 -0.813310E-02  0.125E+00    2.08       1.0  T
   4    -84.9187599 -0.360943E-01  0.678E-01    2.32       1.0  T
   5    -84.9188305 -0.705877E-04  0.247E-01    2.35       1.0  T
   6    -84.9205334 -0.170292E-02  0.162E-01    2.35       1.0  T
   7    -84.9209175 -0.384061E-03  0.110E-01    2.35       1.0  T
   8    -84.9211448 -0.227322E-03  0.475E-02    2.36       1.0  T
   9    -84.9211701 -0.253293E-04  0.203E-02    2.36       1.0  T
  10    -84.9211736 -0.350053E-05  0.106E-02    2.35       1.2  T
  11    -84.9211740 -0.338805E-06  0.506E-03    2.36       2.6  T
  12    -84.9211746 -0.590452E-06  0.311E-03    2.35       4.2  T
  13    -84.9211748 -0.247392E-06  0.970E-04    2.35      13.4  T
  14    -84.9211748 -0.972187E-08  0.463E-04    2.35      28.1  T

   *** convergence criteria satisfied after 14 iterations ***

         #    Occupation            Energy/Eh            Energy/eV
      -------------------------------------------------------------
         1        2.0000           -0.7168010             -19.5051
       ...           ...                  ...                  ...
        71        2.0000           -0.3629427              -9.8762
        72        2.0000           -0.3617900              -9.8448
        73        2.0000           -0.3281360              -8.9290
        74        2.0000           -0.3264481              -8.8831
        75        2.0000           -0.3178497              -8.6491
        76        2.0000           -0.3100455              -8.4368
        77        2.0000           -0.3088619              -8.4046 (HOMO)
        78                         -0.2223570              -6.0506 (LUMO)
        79                         -0.2154995              -5.8640
        80                         -0.2015249              -5.4838
        81                         -0.1998426              -5.4380
        82                         -0.1930841              -5.2541
       ...                                ...                  ...
       145                          1.2573065              34.2131
      -------------------------------------------------------------
                  HL-Gap            0.0865049 Eh            2.3539 eV
             Fermi-level           -0.2656095 Eh           -7.2276 eV

 SCC (total)                   0 d,  0 h,  0 min,  0.738 sec
 SCC setup                      ...        0 min,  0.000 sec (  0.049%)
 Dispersion                     ...        0 min,  0.001 sec (  0.133%)
 classical contributions        ...        0 min,  0.000 sec (  0.039%)
 integral evaluation            ...        0 min,  0.043 sec (  5.873%)
 iterations                     ...        0 min,  0.414 sec ( 56.091%)
 molecular gradient             ...        0 min,  0.279 sec ( 37.767%)
 printout                       ...        0 min,  0.000 sec (  0.046%)

         :::::::::::::::::::::::::::::::::::::::::::::::::::::
         ::                     SUMMARY                     ::
         :::::::::::::::::::::::::::::::::::::::::::::::::::::
         :: total energy             -83.872940376686 Eh    ::
         :: gradient norm              0.000181895796 Eh/a0 ::
         :: HOMO-LUMO gap              2.353917487426 eV    ::
         ::.................................................::
         :: SCC energy               -84.921174822267 Eh    ::
         :: -> isotropic ES            0.078653840125 Eh    ::
         :: -> anisotropic ES          0.017073603740 Eh    ::
         :: -> anisotropic XC          0.038617904079 Eh    ::
         :: -> dispersion             -0.067160901608 Eh    ::
         :: repulsion energy           1.046245040211 Eh    ::
         :: add. restraining           0.000000000000 Eh    ::
         :: total charge               0.000000000000 e     ::
         :::::::::::::::::::::::::::::::::::::::::::::::::::::

           ------------------------------------------------- 
          |                Numerical Hessian                |
           ------------------------------------------------- 
step length          :   0.00500
SCC accuracy         :   0.30000
Hessian scale factor :   1.00000
frozen atoms in %    :   0.00000    0
RMS gradient         :   0.00019
estimated CPU  time      0.40 min
estimated wall time      2.99 min

writing file <hessian>.

 projected vibrational frequencies (cm⁻¹)
eigval :       -0.00    -0.00    -0.00     0.00     0.00     0.00
eigval :       10.82    20.29    22.23    27.27    35.94    41.81
eigval :       46.88    58.25    62.85    71.47    79.17    85.95
eigval :       87.72    90.61   102.09   160.23   167.40   172.14
eigval :      180.45   213.78   234.57   237.03   244.69   260.60
eigval :      265.60   294.99   295.79   318.05   346.17   347.73
eigval :      365.71   367.12   388.69   389.81   424.75   429.51
eigval :      433.53   467.26   468.56   476.47   497.88   500.17
eigval :      518.92   522.31   525.07   619.19   619.60   657.47
eigval :      659.35   734.12   735.37   846.20   847.81   860.85
eigval :      861.65   878.35   879.01   897.49   898.16   906.80
eigval :      909.99   926.04   927.57   953.13   953.81   977.95
eigval :      979.17   996.50   996.93  1025.49  1025.89  1050.58
eigval :     1051.01  1091.43  1091.71  1101.01  1102.56  1116.26
eigval :     1116.82  1122.70  1124.12  1142.17  1142.51  1144.67
eigval :     1145.46  1166.22  1167.28  1190.27  1190.98  1199.86
eigval :     1201.79  1216.30  1218.17  1233.61  1233.77  1243.78
eigval :     1245.66  1252.63  1253.30  1269.01  1270.34  1301.89
eigval :     1304.83  1317.62  1319.79  1328.55  1329.05  1333.14
eigval :     1333.70  1340.95  1342.08  1343.83  1345.14  1353.91
eigval :     1355.53  1360.41  1361.36  1423.65  1426.29  1443.73
eigval :     1448.02  1468.12  1474.41  1475.61  1477.28  1477.54
eigval :     1478.28  1482.58  1484.73  1490.07  1491.50  1493.77
eigval :     1494.74  1499.68  1500.80  1649.26  1657.40  1977.58
eigval :     2007.26  2872.15  2875.91  2877.14  2896.20  2902.28
eigval :     2916.77  2925.53  2928.30  2937.69  2943.87  2953.32
eigval :     2959.16  2960.49  2965.46  2966.46  2968.48  2971.25
eigval :     2972.27  2974.03  2974.84  2976.54  2977.28  2982.60
eigval :     2982.99  2985.17  2986.23  2986.45  2987.76  2992.55
eigval :     2996.89  2999.90  3005.12
           -------------------------------------------------
          |                Property Printout                |
           -------------------------------------------------

    * Orbital Energies and Occupations

         #    Occupation            Energy/Eh            Energy/eV
      -------------------------------------------------------------
         1        2.0000           -0.7167973             -19.5050
       ...           ...                  ...                  ...
        65        2.0000           -0.4247160             -11.5571
        66        2.0000           -0.4225983             -11.4995
        67        2.0000           -0.4205752             -11.4444
        68        2.0000           -0.4195627             -11.4169
        69        2.0000           -0.3863594             -10.5134
        70        2.0000           -0.3807245             -10.3600
        71        2.0000           -0.3629437              -9.8762
        72        2.0000           -0.3617912              -9.8448
        73        2.0000           -0.3281379              -8.9291
        74        2.0000           -0.3264500              -8.8832
        75        2.0000           -0.3178521              -8.6492
        76        2.0000           -0.3100472              -8.4368
        77        2.0000           -0.3088628              -8.4046 (HOMO)
        78                         -0.2223535              -6.0505 (LUMO)
        79                         -0.2154960              -5.8639
        80                         -0.2015221              -5.4837
        81                         -0.1998396              -5.4379
        82                         -0.1930847              -5.2541
        83                         -0.1914512              -5.2097
        84                         -0.0139090              -0.3785
        85                         -0.0117030              -0.3185
        86                          0.0506966               1.3795
        87                          0.0521268               1.4184
        88                          0.0663686               1.8060
       ...                                ...                  ...
       145                          1.2573087              34.2131
      -------------------------------------------------------------
                  HL-Gap            0.0865092 Eh            2.3540 eV
             Fermi-level           -0.2656081 Eh           -7.2276 eV

     #   Z          covCN         q      C6AA      α(0)
     1  28 Ni       2.904    -0.899   203.135    29.408
     2   7 N        2.404    -0.106    23.437     7.189
     3   6 C        2.847     0.149    24.750     8.154
     4   7 N        2.739    -0.100    23.195     7.153
     5   6 C        3.747     0.002    20.614     6.476
     6   6 C        3.801    -0.061    21.676     6.629
     7   6 C        3.802    -0.056    21.588     6.615
     8   6 C        3.802    -0.052    21.501     6.602
     9   6 C        3.811    -0.070    21.831     6.651
    10   6 C        3.753     0.010    20.471     6.452
    11   6 C        3.806    -0.065    21.744     6.638
    12   6 C        3.768     0.018    20.311     6.423
    13   1 H        0.924     0.037     2.486     2.466
    14   1 H        0.924     0.044     2.399     2.422
    15   1 H        0.924     0.032     2.553     2.499
    16   1 H        0.924     0.041     2.434     2.440
    17   1 H        0.924     0.028     2.610     2.526
    18   1 H        0.924     0.032     2.555     2.500
    19   1 H        0.924     0.045     2.383     2.414
    20   1 H        0.924     0.036     2.500     2.473
    21   1 H        0.924     0.120     1.614     1.987
    22   1 H        0.924     0.034     2.527     2.486
    23   1 H        0.924     0.035     2.513     2.479
    24   1 H        0.923     0.030     2.585     2.514
    25   1 H        0.924     0.045     2.381     2.413
    26   1 H        0.925     0.036     2.500     2.472
    27   1 H        0.924     0.072     2.068     2.249
    28   1 H        0.923     0.033     2.550     2.497
    29   7 N        2.399    -0.113    23.593     7.212
    30   6 C        2.849     0.151    24.714     8.148
    31   7 N        2.739    -0.096    23.111     7.140
    32   6 C        3.747    -0.000    20.651     6.482
    33   6 C        3.801    -0.061    21.680     6.629
    34   6 C        3.802    -0.058    21.616     6.619
    35   6 C        3.802    -0.053    21.524     6.605
    36   6 C        3.811    -0.073    21.877     6.658
    37   6 C        3.753     0.009    20.480     6.453
    38   6 C        3.806    -0.064    21.730     6.636
    39   6 C        3.770     0.018    20.306     6.422
    40   1 H        0.924     0.039     2.468     2.457
    41   1 H        0.924     0.049     2.335     2.390
    42   1 H        0.924     0.034     2.535     2.490
    43   1 H        0.924     0.038     2.471     2.458
    44   1 H        0.924     0.033     2.541     2.493
    45   1 H        0.924     0.032     2.556     2.500
    46   1 H        0.924     0.038     2.474     2.459
    47   1 H        0.924     0.041     2.440     2.443
    48   1 H        0.923     0.120     1.617     1.988
    49   1 H        0.924     0.047     2.363     2.404
    50   1 H        0.924     0.034     2.524     2.485
    51   1 H        0.923     0.033     2.549     2.497
    52   1 H        0.924     0.037     2.486     2.466
    53   1 H        0.925     0.033     2.541     2.493
    54   1 H        0.924     0.062     2.177     2.308
    55   1 H        0.924     0.035     2.515     2.480
    56   6 C        1.740     0.273    25.030     8.093
    57   8 O        0.856    -0.199    18.044     5.695
    58   6 C        1.739     0.280    24.892     8.071
    59   8 O        0.856    -0.190    17.911     5.674

 Mol. C6AA /au·bohr⁶  :      34068.460528
 Mol. C8AA /au·bohr⁸  :     865187.275408
 Mol. α(0) /au        :        284.572237


Wiberg/Mayer (AO) data.
largest (>0.10) Wiberg bond orders for each atom

 ---------------------------------------------------------------------------
     #   Z sym  total        # sym  WBO       # sym  WBO       # sym  WBO
 ---------------------------------------------------------------------------
     1  28 Ni   3.982 --    56 C    1.191    58 C    1.165     2 N    0.455
                            29 N    0.449    57 O    0.220    59 O    0.208
     2   7 N    3.433 --     3 C    1.631    12 C    1.003     1 Ni   0.455
                             4 N    0.162
     3   6 C    3.966 --     2 N    1.631     4 N    1.215     9 C    0.996
     4   7 N    3.458 --     3 C    1.215     5 C    0.994    10 C    0.986
                             2 N    0.162
     5   6 C    3.977 --     4 N    0.994     6 C    0.994    13 H    0.973
                            14 H    0.965
     6   6 C    3.996 --     7 C    1.009     5 C    0.994    15 H    0.976
                            16 H    0.976
     7   6 C    3.997 --     6 C    1.009     8 C    1.009    18 H    0.976
                            17 H    0.976
     8   6 C    3.995 --     7 C    1.009     9 C    0.992    20 H    0.976
                            19 H    0.975
     9   6 C    3.991 --     3 C    0.996     8 C    0.992    22 H    0.960
                            21 H    0.913
    10   6 C    3.979 --    11 C    1.006     4 N    0.986    23 H    0.969
                            24 H    0.968
    11   6 C    3.995 --    10 C    1.006    12 C    0.997    25 H    0.976
                            26 H    0.975
    12   6 C    3.989 --     2 N    1.003    11 C    0.997    28 H    0.960
                            27 H    0.952
    13   1 H    0.998 --     5 C    0.973
    14   1 H    0.998 --     5 C    0.965
    15   1 H    0.998 --     6 C    0.976
    16   1 H    0.998 --     6 C    0.976
    17   1 H    0.999 --     7 C    0.976
    18   1 H    0.999 --     7 C    0.976
    19   1 H    0.998 --     8 C    0.975
    20   1 H    0.998 --     8 C    0.976
    21   1 H    0.986 --     9 C    0.913
    22   1 H    0.999 --     9 C    0.960
    23   1 H    0.998 --    10 C    0.969
    24   1 H    0.999 --    10 C    0.968
    25   1 H    0.998 --    11 C    0.976
    26   1 H    0.998 --    11 C    0.975
    27   1 H    0.995 --    12 C    0.952
    28   1 H    0.998 --    12 C    0.960
    29   7 N    3.425 --    30 C    1.624    39 C    1.006     1 Ni   0.449
                            31 N    0.162
    30   6 C    3.967 --    29 N    1.624    31 N    1.220    36 C    0.998
    31   7 N    3.462 --    30 C    1.220    32 C    0.994    37 C    0.988
                            29 N    0.162
    32   6 C    3.976 --    33 C    0.994    31 N    0.994    40 H    0.973
                            41 H    0.964
    33   6 C    3.996 --    34 C    1.009    32 C    0.994    42 H    0.976
                            43 H    0.976
    34   6 C    3.996 --    33 C    1.009    35 C    1.009    45 H    0.976
                            44 H    0.976
    35   6 C    3.996 --    34 C    1.009    36 C    0.993    46 H    0.976
                            47 H    0.976
    36   6 C    3.991 --    30 C    0.998    35 C    0.993    49 H    0.958
                            48 H    0.903
    37   6 C    3.980 --    38 C    1.006    31 N    0.988    50 H    0.969
                            51 H    0.967
    38   6 C    3.995 --    37 C    1.006    39 C    0.996    52 H    0.977
                            53 H    0.976
    39   6 C    3.989 --    29 N    1.006    38 C    0.996    55 H    0.960
                            54 H    0.958
    40   1 H    0.998 --    32 C    0.973
    41   1 H    0.997 --    32 C    0.964
    42   1 H    0.998 --    33 C    0.976
    43   1 H    0.999 --    33 C    0.976
    44   1 H    0.999 --    34 C    0.976
    45   1 H    0.999 --    34 C    0.976
    46   1 H    0.999 --    35 C    0.976
    47   1 H    0.998 --    35 C    0.976
    48   1 H    0.986 --    36 C    0.903
    49   1 H    0.998 --    36 C    0.958
    50   1 H    0.998 --    37 C    0.969
    51   1 H    0.999 --    37 C    0.967
    52   1 H    0.999 --    38 C    0.977
    53   1 H    0.998 --    38 C    0.976
    54   1 H    0.996 --    39 C    0.958
    55   1 H    0.998 --    39 C    0.960
    56   6 C    3.509 --    57 O    2.204     1 Ni   1.191
    57   8 O    2.484 --    56 C    2.204     1 Ni   0.220
    58   6 C    3.494 --    59 O    2.229     1 Ni   1.165
    59   8 O    2.493 --    58 C    2.229     1 Ni   0.208
 ---------------------------------------------------------------------------

Topologies differ in total number of bonds
Writing topology from bond orders to xtbtopo.mol

molecular dipole:
                 x           y           z       tot (Debye)
 q only:        0.061       2.605       1.177
   full:       -0.050       2.891       1.669       8.485
molecular quadrupole (traceless):
                xx          xy          yy          xz          yz          zz
 q only:       26.103       3.987     -16.585      -5.243      -1.357      -9.517
  q+dip:       30.486       2.616     -19.472      -2.580      -1.655     -11.014
   full:       30.443       4.001     -19.211      -4.180      -0.965     -11.232

           -------------------------------------------------
          |               Frequency Printout                |
           -------------------------------------------------
 projected vibrational frequencies (cm⁻¹)
eigval :       -0.00    -0.00    -0.00     0.00     0.00     0.00
eigval :       10.82    20.29    22.23    27.27    35.94    41.81
eigval :       46.88    58.25    62.85    71.47    79.17    85.95
eigval :       87.72    90.61   102.09   160.23   167.40   172.14
eigval :      180.45   213.78   234.57   237.03   244.69   260.60
eigval :      265.60   294.99   295.79   318.05   346.17   347.73
eigval :      365.71   367.12   388.69   389.81   424.75   429.51
eigval :      433.53   467.26   468.56   476.47   497.88   500.17
eigval :      518.92   522.31   525.07   619.19   619.60   657.47
eigval :      659.35   734.12   735.37   846.20   847.81   860.85
eigval :      861.65   878.35   879.01   897.49   898.16   906.80
eigval :      909.99   926.04   927.57   953.13   953.81   977.95
eigval :      979.17   996.50   996.93  1025.49  1025.89  1050.58
eigval :     1051.01  1091.43  1091.71  1101.01  1102.56  1116.26
eigval :     1116.82  1122.70  1124.12  1142.17  1142.51  1144.67
eigval :     1145.46  1166.22  1167.28  1190.27  1190.98  1199.86
eigval :     1201.79  1216.30  1218.17  1233.61  1233.77  1243.78
eigval :     1245.66  1252.63  1253.30  1269.01  1270.34  1301.89
eigval :     1304.83  1317.62  1319.79  1328.55  1329.05  1333.14
eigval :     1333.70  1340.95  1342.08  1343.83  1345.14  1353.91
eigval :     1355.53  1360.41  1361.36  1423.65  1426.29  1443.73
eigval :     1448.02  1468.12  1474.41  1475.61  1477.28  1477.54
eigval :     1478.28  1482.58  1484.73  1490.07  1491.50  1493.77
eigval :     1494.74  1499.68  1500.80  1649.26  1657.40  1977.58
eigval :     2007.26  2872.15  2875.91  2877.14  2896.20  2902.28
eigval :     2916.77  2925.53  2928.30  2937.69  2943.87  2953.32
eigval :     2959.16  2960.49  2965.46  2966.46  2968.48  2971.25
eigval :     2972.27  2974.03  2974.84  2976.54  2977.28  2982.60
eigval :     2982.99  2985.17  2986.23  2986.45  2987.76  2992.55
eigval :     2996.89  2999.90  3005.12
 reduced masses (amu)
   1: 20.20   2: 11.43   3: 14.71   4: 15.90   5: 19.45   6: 11.69   7: 12.48   8: 11.61
   9: 12.61  10: 14.95  11: 14.60  12: 14.33  13: 15.99  14: 12.62  15:  9.67  16: 19.34
  17: 12.01  18:  9.80  19: 10.86  20: 12.38  21: 13.84  22: 14.04  23:  8.77  24: 36.70
  25: 26.45  26: 15.34  27:  9.51  28:  8.95  29: 11.48  30: 10.75  31: 11.74  32:  7.50
  33:  8.23  34: 19.37  35:  9.96  36: 10.68  37:  9.53  38:  9.04  39:  9.42  40:  9.76
  41: 16.86  42:  8.71  43: 14.32  44:  8.38  45:  8.49  46: 13.75  47:  9.90  48:  9.98
  49: 14.66  50:  7.61  51: 15.84  52: 10.65  53: 10.61  54:  8.08  55:  8.05  56:  9.95
  57:  9.96  58:  6.64  59:  6.79  60:  5.71  61:  5.68  62:  6.86  63:  6.73  64:  4.33
  65:  4.52  66:  6.67  67:  7.03  68:  6.11  69:  6.14  70:  8.40  71:  8.45  72:  7.28
  73:  7.24  74:  7.50  75:  7.49  76:  7.31  77:  7.32  78:  6.45  79:  6.49  80:  6.87
  81:  6.93  82:  6.43  83:  6.36  84:  6.15  85:  6.17  86:  7.44  87:  7.69  88:  7.33
  89:  7.39  90:  7.78  91:  7.75  92:  3.88  93:  3.92  94:  4.10  95:  4.07  96:  4.13
  97:  4.41  98:  4.81  99:  4.48 100:  4.37 101:  4.37 102:  2.83 103:  2.83 104:  3.86
 105:  3.79 106:  5.85 107:  5.67 108:  4.10 109:  4.14 110:  4.87 111:  4.80 112:  4.68
 113:  4.69 114:  4.55 115:  4.45 116:  5.46 117:  5.34 118:  4.71 119:  4.48 120:  4.91
 121:  4.86 122:  4.95 123:  4.96 124:  8.73 125:  8.18 126:  3.64 127:  3.03 128:  1.96
 129:  1.97 130:  1.99 131:  2.00 132:  1.97 133:  2.09 134:  2.10 135:  2.03 136:  2.12
 137:  2.17 138:  2.07 139:  2.13 140:  1.95 141:  1.94 142: 12.25 143: 12.30 144: 13.64
 145: 13.63 146:  1.85 147:  1.87 148:  1.76 149:  1.78 150:  1.78 151:  1.77 152:  1.57
 153:  1.60 154:  1.82 155:  1.85 156:  1.84 157:  1.72 158:  1.89 159:  1.68 160:  1.72
 161:  1.67 162:  1.80 163:  1.76 164:  1.73 165:  1.85 166:  1.72 167:  1.82 168:  1.73
 169:  1.68 170:  1.77 171:  1.58 172:  1.83 173:  1.56 174:  1.54 175:  1.62 176:  1.64
 177:  1.64
 IR intensities (km·mol⁻¹)
   1:  1.02   2:  0.41   3:  0.68   4:  0.34   5:  0.04   6:  0.52   7:  0.67   8:  0.45
   9:  0.66  10:  0.19  11:  0.72  12:  0.26  13:  0.17  14:  0.24  15:  0.13  16:  1.36
  17:  0.57  18:  0.99  19:  0.42  20:  0.36  21:  0.34  22:  0.18  23:  0.84  24:  0.73
  25:  0.04  26:  1.76  27:  0.25  28:  0.65  29:  3.28  30:  1.62  31:  0.22  32:  0.46
  33:  0.21  34:  2.56  35:  6.78  36:  3.11  37:  3.38  38:  4.78  39:  1.22  40:  2.51
  41: 11.89  42:  5.59  43:  8.82  44:  2.05  45:  1.53  46:  0.68  47:  1.08  48:  0.38
  49:  5.72  50:  1.03  51:  4.23  52: 10.70  53:  8.85  54:  4.43  55:  5.00  56:  1.13
  57:  1.06  58:  0.38  59:  0.64  60:  4.16  61: 12.05  62:  3.45  63:  2.91  64:  2.77
  65:  2.78  66:  2.10  67:  1.11  68:  4.50  69:  3.03  70:  0.52  71:  1.04  72:  7.43
  73: 13.60  74:  5.31  75:  6.79  76: 17.69  77:  8.78  78:  7.45  79:  7.16  80:  1.88
  81:  2.27  82: 13.47  83:  5.34  84:  2.73  85:  2.65  86: 19.62  87: 16.05  88:  1.91
  89:  2.97  90:  0.87  91:  0.14  92:  2.66  93:  2.29  94: 10.96  95: 19.63  96:  3.59
  97:  8.98  98:  6.31  99:  7.17 100: 16.50 101:  9.12 102:  2.04 103:  3.58 104:  4.19
 105:  0.91 106: 17.37 107: 11.82 108: 21.44 109: 31.95 110: 18.12 111: 18.86 112:  1.20
 113:  1.92 114: 16.66 115: 14.07 116: 22.23 117: 26.13 118: 18.06 119: 12.49 120:  0.37
 121:  0.13 122:  5.30 123:  6.93 124:112.71 125: 60.22 126: 42.75 127: 18.42 128:  5.65
 129:  4.98 130:  0.80 131:  0.69 132:  0.70 133:  0.62 134:  2.04 135:  1.06 136:  6.82
 137:  5.37 138:  1.04 139:  1.61 140:  0.56 141:  0.55 142:750.12 143:378.16 144:******
 145:851.48 146: 34.46 147: 34.78 148:  2.42 149: 37.43 150: 41.52 151:  3.64 152: 54.85
 153: 47.25 154: 20.76 155: 15.78 156:  8.85 157: 38.87 158: 13.70 159: 10.17 160:  7.60
 161:  9.59 162:  7.98 163: 12.71 164: 33.79 165: 69.21 166:  7.26 167: 42.49 168:108.45
 169: 15.21 170:159.78 171: 69.22 172: 23.76 173: 49.23 174: 48.97 175: 46.92 176: 54.12
 177: 47.33
 Raman intensities (amu)
   1:  0.00   2:  0.00   3:  0.00   4:  0.00   5:  0.00   6:  0.00   7:  0.00   8:  0.00
   9:  0.00  10:  0.00  11:  0.00  12:  0.00  13:  0.00  14:  0.00  15:  0.00  16:  0.00
  17:  0.00  18:  0.00  19:  0.00  20:  0.00  21:  0.00  22:  0.00  23:  0.00  24:  0.00
  25:  0.00  26:  0.00  27:  0.00  28:  0.00  29:  0.00  30:  0.00  31:  0.00  32:  0.00
  33:  0.00  34:  0.00  35:  0.00  36:  0.00  37:  0.00  38:  0.00  39:  0.00  40:  0.00
  41:  0.00  42:  0.00  43:  0.00  44:  0.00  45:  0.00  46:  0.00  47:  0.00  48:  0.00
  49:  0.00  50:  0.00  51:  0.00  52:  0.00  53:  0.00  54:  0.00  55:  0.00  56:  0.00
  57:  0.00  58:  0.00  59:  0.00  60:  0.00  61:  0.00  62:  0.00  63:  0.00  64:  0.00
  65:  0.00  66:  0.00  67:  0.00  68:  0.00  69:  0.00  70:  0.00  71:  0.00  72:  0.00
  73:  0.00  74:  0.00  75:  0.00  76:  0.00  77:  0.00  78:  0.00  79:  0.00  80:  0.00
  81:  0.00  82:  0.00  83:  0.00  84:  0.00  85:  0.00  86:  0.00  87:  0.00  88:  0.00
  89:  0.00  90:  0.00  91:  0.00  92:  0.00  93:  0.00  94:  0.00  95:  0.00  96:  0.00
  97:  0.00  98:  0.00  99:  0.00 100:  0.00 101:  0.00 102:  0.00 103:  0.00 104:  0.00
 105:  0.00 106:  0.00 107:  0.00 108:  0.00 109:  0.00 110:  0.00 111:  0.00 112:  0.00
 113:  0.00 114:  0.00 115:  0.00 116:  0.00 117:  0.00 118:  0.00 119:  0.00 120:  0.00
 121:  0.00 122:  0.00 123:  0.00 124:  0.00 125:  0.00 126:  0.00 127:  0.00 128:  0.00
 129:  0.00 130:  0.00 131:  0.00 132:  0.00 133:  0.00 134:  0.00 135:  0.00 136:  0.00
 137:  0.00 138:  0.00 139:  0.00 140:  0.00 141:  0.00 142:  0.00 143:  0.00 144:  0.00
 145:  0.00 146:  0.00 147:  0.00 148:  0.00 149:  0.00 150:  0.00 151:  0.00 152:  0.00
 153:  0.00 154:  0.00 155:  0.00 156:  0.00 157:  0.00 158:  0.00 159:  0.00 160:  0.00
 161:  0.00 162:  0.00 163:  0.00 164:  0.00 165:  0.00 166:  0.00 167:  0.00 168:  0.00
 169:  0.00 170:  0.00 171:  0.00 172:  0.00 173:  0.00 174:  0.00 175:  0.00 176:  0.00
 177:  0.00
 output can be read by thermo (or use thermo option).
 writing <g98.out> molden fake output.
 recommended (thermochemical) frequency scaling factor: 1.0
           -------------------------------------------------
          |             Thermodynamic Functions             |
Refinement of some symmetry elements was terminated before convergence was reached.
Some symmetry elements may remain unidentified.
Molecule has no symmetry elements
It seems to be the C1 point group
           -------------------------------------------------

c1  symmetry found (for desy threshold:  0.10E+00) used in thermo

          ...................................................
          :                      SETUP                      :
          :.................................................:
          :  # frequencies                         171      :
          :  # imaginary freq.                       0      :
          :  linear?                             false      :
          :  only rotor calc.                    false      :
          :  symmetry                               c1      :
          :  rotational number                       1      :
          :  scaling factor                  1.0000000      :
          :  rotor cutoff                   50.0000000 cm⁻¹ :
          :  imag. cutoff                  -20.0000000 cm⁻¹ :
          :.................................................:

    mode    ω/cm⁻¹     T·S(HO)/kcal·mol⁻¹    T·S(FR)/kcal·mol⁻¹   T·S(vib)
   ------------------------------------------------------------------------
       1     10.82    -2.34182 (  0.22%)    -1.50987 ( 99.78%)    -1.51169
       2     20.29    -1.96952 (  2.64%)    -1.32369 ( 97.36%)    -1.34073
       3     22.23    -1.91531 (  3.76%)    -1.29657 ( 96.24%)    -1.31985
       4     27.27    -1.79440 (  8.13%)    -1.23605 ( 91.87%)    -1.28146
       5     35.94    -1.63123 ( 21.07%)    -1.15432 ( 78.93%)    -1.25481
       6     41.81    -1.54182 ( 32.84%)    -1.10949 ( 67.16%)    -1.25148
       7     46.88    -1.47426 ( 43.60%)    -1.07559 ( 56.40%)    -1.24941
       8     58.25    -1.34632 ( 64.82%)    -1.01128 ( 35.18%)    -1.22844
       9     62.85    -1.30158 ( 71.41%)    -0.98875 ( 28.59%)    -1.21213
      10     71.47    -1.22614 ( 80.67%)    -0.95070 ( 19.33%)    -1.17291
      11     79.17    -1.16613 ( 86.28%)    -0.92037 ( 13.72%)    -1.13241
      12     85.95    -1.11813 ( 89.72%)    -0.89605 ( 10.28%)    -1.09531
      13     87.72    -1.10619 ( 90.45%)    -0.88999 (  9.55%)    -1.08555
      14     90.61    -1.08731 ( 91.51%)    -0.88041 (  8.49%)    -1.06975
      15    102.09    -1.01788 ( 94.56%)    -0.84506 (  5.44%)    -1.00847
      16    160.23    -0.75943 ( 99.06%)    -0.71155 (  0.94%)    -0.75898
      17    167.40    -0.73479 ( 99.21%)    -0.69858 (  0.79%)    -0.73450
      18    172.14    -0.71914 ( 99.29%)    -0.69031 (  0.71%)    -0.71893
      19    180.45    -0.69282 ( 99.41%)    -0.67633 (  0.59%)    -0.69272
      20    213.78    -0.59963 ( 99.70%)    -0.62613 (  0.30%)    -0.59971
      21    234.57    -0.54969 ( 99.79%)    -0.59863 (  0.21%)    -0.54979
      22    237.03    -0.54414 ( 99.80%)    -0.59554 (  0.20%)    -0.54424
      23    244.69    -0.52728 ( 99.83%)    -0.58612 (  0.17%)    -0.52739
      24    260.60    -0.49426 ( 99.86%)    -0.56746 (  0.14%)    -0.49435
      25    265.60    -0.48440 ( 99.87%)    -0.56183 (  0.13%)    -0.48450
      26    294.99    -0.43088 ( 99.92%)    -0.53074 (  0.08%)    -0.43096
      27    295.79    -0.42952 ( 99.92%)    -0.52994 (  0.08%)    -0.42960
   ------------------------------------------------------------------------

   temp. (K)  partition function   enthalpy   heat capacity  entropy
                                   cal/mol     cal/K/mol   cal/K/mol   J/K/mol
 298.15  VIB  0.118E+15            16527.011    101.534    106.999
         ROT  0.151E+08              888.752      2.981     35.827
         INT  0.178E+22            17415.763    104.515    142.826
         TR   0.830E+28             1481.254      4.968     43.970
         TOT                       18897.0169   109.4834   186.7956   781.5526

       T/K    H(0)-H(T)+PV         H(T)/Eh          T*S/Eh         G(T)/Eh
   ------------------------------------------------------------------------
    298.15    0.301143E-01    0.528631E+00    0.887526E-01    0.439878E+00
   ------------------------------------------------------------------------

         :::::::::::::::::::::::::::::::::::::::::::::::::::::
         ::                  THERMODYNAMIC                  ::
         :::::::::::::::::::::::::::::::::::::::::::::::::::::
         :: total free energy         -83.433062333134 Eh   ::
         ::.................................................::
         :: total energy              -83.872940378240 Eh   ::
         :: zero point energy           0.498516330324 Eh   ::
         :: G(RRHO) w/o ZPVE           -0.058638285218 Eh   ::
         :: G(RRHO) contrib.            0.439878045106 Eh   ::
         :::::::::::::::::::::::::::::::::::::::::::::::::::::

           -------------------------------------------------
          | TOTAL ENERGY              -83.872940378240 Eh   |
          | TOTAL ENTHALPY            -83.344309734651 Eh   |
          | TOTAL FREE ENERGY         -83.433062333134 Eh   |
          | GRADIENT NORM               0.000190912693 Eh/α |
          | HOMO-LUMO GAP               2.354036429594 eV   |
           -------------------------------------------------

------------------------------------------------------------------------
 * finished run on 2022/05/27 at 18:12:04.015     
------------------------------------------------------------------------
 total:
 * wall-time:     0 d,  0 h,  2 min, 48.883 sec
 *  cpu-time:     0 d,  0 h,  0 min, 22.798 sec
 * ratio c/w:     0.135 speedup
 SCF:
 * wall-time:     0 d,  0 h,  0 min,  0.739 sec
 *  cpu-time:     0 d,  0 h,  0 min,  0.100 sec
 * ratio c/w:     0.136 speedup
 analytical hessian:
 * wall-time:     0 d,  0 h,  2 min, 47.776 sec
 *  cpu-time:     0 d,  0 h,  0 min, 22.660 sec
 * ratio c/w:     0.135 speedup

