 Entering Gaussian System
 *********************************************
 Gaussian 98:
 frequency output generated by the xtb code
 *********************************************
                         Standard orientation:
 --------------------------------------------------------------------
  Center     Atomic     Atomic              Coordinates (Angstroms)
  Number     Number      Type              X           Y           Z
 --------------------------------------------------------------------
    1         28             0       -0.066107   -1.238337   -0.537648
    2          7             0       -1.262681    0.399720    0.174298
    3          6             0       -2.380409    0.786380   -0.333570
    4          7             0       -3.222336    1.672114    0.254702
    5          6             0       -4.410298    2.163557   -0.406937
    6          6             0       -5.528278    1.119668   -0.498744
    7          6             0       -5.337336    0.168257   -1.676027
    8          6             0       -4.041820   -0.634850   -1.600281
    9          6             0       -2.774047    0.222560   -1.668696
   10          6             0       -3.088347    2.026556    1.655388
   11          6             0       -2.131306    1.074335    2.353958
   12          6             0       -0.894866    0.935654    1.472891
   13          1             0       -4.758760    3.028787    0.163701
   14          1             0       -4.154350    2.515552   -1.410565
   15          1             0       -6.484618    1.635283   -0.609782
   16          1             0       -5.560751    0.551360    0.433493
   17          1             0       -5.348466    0.744827   -2.605189
   18          1             0       -6.181176   -0.524724   -1.710378
   19          1             0       -4.022874   -1.225230   -0.682566
   20          1             0       -4.024720   -1.336035   -2.436768
   21          1             0       -1.933755   -0.412768   -1.980440
   22          1             0       -2.893922    1.017705   -2.407869
   23          1             0       -4.077495    1.983503    2.125841
   24          1             0       -2.720973    3.059904    1.736536
   25          1             0       -2.596729    0.092500    2.463308
   26          1             0       -1.875576    1.452457    3.343544
   27          1             0       -0.160823    0.264998    1.923600
   28          1             0       -0.424833    1.918805    1.338458
   29          7             0        1.809152   -0.956431    0.512139
   30          6             0        2.681107   -0.060467    0.209125
   31          7             0        3.984781   -0.083794    0.584364
   32          6             0        4.954865    0.859188    0.075701
   33          6             0        4.835269    2.246770    0.714009
   34          6             0        3.734359    3.085714    0.073582
   35          6             0        2.351927    2.447806    0.185628
   36          6             0        2.211682    1.129070   -0.581016
   37          6             0        4.483476   -1.101185    1.487035
   38          6             0        3.334229   -1.671035    2.302038
   39          6             0        2.227033   -2.079017    1.335720
   40          1             0        5.945188    0.446103    0.283416
   41          1             0        4.859479    0.947025   -1.011083
   42          1             0        5.788266    2.768637    0.604899
   43          1             0        4.638207    2.129203    1.782055
   44          1             0        3.972126    3.241362   -0.981913
   45          1             0        3.713096    4.067584    0.553092
   46          1             0        2.111444    2.278574    1.237724
   47          1             0        1.619284    3.154538   -0.211033
   48          1             0        1.152055    0.944538   -0.793921
   49          1             0        2.737056    1.191317   -1.536154
   50          1             0        5.231461   -0.647416    2.147092
   51          1             0        4.974958   -1.902161    0.916509
   52          1             0        2.953419   -0.904876    2.981743
   53          1             0        3.671780   -2.523079    2.891431
   54          1             0        1.353868   -2.442142    1.883836
   55          1             0        2.573256   -2.893434    0.687063
   56          6             0        0.643499   -1.384805   -2.158330
   57          8             0        1.448082   -1.676961   -2.929441
   58          6             0       -1.142044   -2.448674    0.197365
   59          8             0       -2.152455   -2.903676    0.509972
 --------------------------------------------------------------------
     1 basis functions        1 primitive gaussians
     1 alpha electrons        1 beta electrons

 Harmonic frequencies (cm**-1), IR intensities (km*mol⁻¹),
 Raman scattering activities (A**4/amu), Raman depolarization ratios,
 reduced masses (AMU), force constants (mDyne/A) and normal coordinates:
                      1                      2                      3
                        a                      a                      a 
 Frequencies --    14.7238                21.4046                25.0762
 Red. masses --    12.7722                12.8858                14.4298
 Frc consts  --     0.0000                 0.0000                 0.0000
 IR Inten    --     1.0512                 1.7244                 0.5077
 Raman Activ --     0.0000                 0.0000                 0.0000
 Depolar     --     0.0000                 0.0000                 0.0000
 Atom AN      X      Y      Z        X      Y      Z        X      Y      Z
   1  28     0.01  -0.16   0.12     0.04  -0.06  -0.20     0.05   0.18  -0.08
   2   7     0.03  -0.06   0.08     0.05  -0.04  -0.02     0.05   0.13  -0.09
   3   6     0.07   0.02   0.04     0.04  -0.01   0.03    -0.01   0.04  -0.03
   4   7     0.07   0.00   0.07     0.07  -0.01   0.08    -0.08  -0.08   0.06
   5   6     0.13   0.10   0.03     0.06   0.02   0.12    -0.14  -0.14   0.12
   6   6     0.10   0.15  -0.12     0.04   0.04   0.13    -0.04  -0.25   0.05
   7   6     0.13   0.24  -0.19    -0.01   0.07   0.10     0.03  -0.12  -0.04
   8   6     0.10   0.19  -0.18    -0.02   0.05   0.04     0.11  -0.01  -0.13
   9   6     0.13   0.15  -0.03    -0.01   0.03   0.02     0.03   0.12  -0.07
  10   6    -0.01  -0.13   0.11     0.11  -0.06   0.08    -0.10  -0.19   0.09
  11   6    -0.08  -0.22   0.08     0.12  -0.09   0.03     0.04  -0.12  -0.01
  12   6    -0.03  -0.17   0.14     0.09  -0.07  -0.02     0.03   0.09  -0.06
  13   1     0.03   0.02   0.03     0.02   0.00   0.05    -0.06  -0.07   0.06
  14   1     0.06   0.05   0.02     0.01   0.01   0.04    -0.06  -0.01   0.04
  15   1     0.03   0.05  -0.04     0.01   0.02   0.05    -0.03  -0.10   0.04
  16   1     0.01   0.02  -0.05     0.02   0.00   0.03     0.01  -0.10  -0.00
  17   1     0.06   0.09  -0.04    -0.01   0.03   0.03    -0.01  -0.01   0.00
  18   1     0.03   0.08  -0.09    -0.01   0.02   0.03     0.03  -0.06  -0.03
  19   1     0.01   0.03  -0.07    -0.00   0.01   0.01     0.05  -0.03  -0.05
  20   1     0.04   0.07  -0.07    -0.02   0.02   0.01     0.05   0.02  -0.06
  21   1     0.04   0.04  -0.01    -0.01   0.01  -0.01     0.02   0.06  -0.04
  22   1     0.06   0.06   0.01    -0.01   0.01   0.01    -0.01   0.05   0.00
  23   1    -0.01  -0.04   0.01     0.03  -0.02   0.03    -0.03  -0.11   0.03
  24   1     0.00  -0.04   0.06     0.03  -0.02   0.03    -0.07  -0.04   0.05
  25   1    -0.03  -0.06  -0.01     0.03  -0.03   0.00     0.05  -0.06  -0.02
  26   1    -0.04  -0.09   0.04     0.04  -0.03   0.01     0.01  -0.05   0.00
  27   1    -0.02  -0.07   0.04     0.03  -0.02  -0.02     0.04   0.05  -0.04
  28   1    -0.00  -0.05   0.07     0.03  -0.02  -0.00    -0.03   0.05  -0.01
  29   7     0.02  -0.03  -0.01    -0.03   0.00  -0.02     0.02   0.00  -0.03
  30   6    -0.03   0.01  -0.03    -0.01  -0.00   0.01     0.04  -0.01  -0.01
  31   7    -0.02   0.08  -0.05    -0.05   0.05   0.17     0.04  -0.03   0.03
  32   6    -0.07   0.12  -0.07     0.00  -0.01   0.15     0.06  -0.04   0.06
  33   6    -0.13   0.12  -0.07    -0.04   0.06  -0.00     0.05  -0.04   0.06
  34   6    -0.18   0.06  -0.06     0.01  -0.01  -0.18     0.08  -0.03   0.02
  35   6    -0.15  -0.00  -0.04     0.01   0.00  -0.23     0.07  -0.01  -0.03
  36   6    -0.10  -0.02  -0.03     0.06  -0.06  -0.12     0.08  -0.01  -0.03
  37   6     0.05   0.10  -0.05    -0.14   0.16   0.33    -0.01  -0.03   0.05
  38   6     0.09   0.04  -0.04    -0.23   0.19   0.22    -0.04  -0.01   0.02
  39   6     0.09  -0.01  -0.02    -0.08   0.07   0.10    -0.02  -0.00  -0.01
  40   1    -0.01   0.05  -0.02    -0.01   0.00   0.08     0.01  -0.01   0.03
  41   1    -0.03   0.03  -0.02     0.03  -0.03   0.04     0.03  -0.01   0.02
  42   1    -0.05   0.05  -0.03    -0.01   0.01   0.01     0.02  -0.01   0.03
  43   1    -0.03   0.03  -0.02    -0.04   0.05  -0.00     0.00  -0.01   0.01
  44   1    -0.06   0.02  -0.02     0.03  -0.03  -0.05     0.03  -0.01   0.01
  45   1    -0.06   0.02  -0.02    -0.01   0.01  -0.08     0.02  -0.01   0.00
  46   1    -0.04  -0.00  -0.01    -0.02   0.03  -0.07     0.01   0.00  -0.01
  47   1    -0.06  -0.01  -0.01     0.01  -0.01  -0.10     0.03  -0.00  -0.02
  48   1    -0.03  -0.02  -0.00     0.02  -0.02  -0.05     0.02  -0.00  -0.02
  49   1    -0.03   0.00  -0.01     0.04  -0.04  -0.03     0.03  -0.01  -0.00
  50   1     0.01   0.04  -0.02    -0.07   0.08   0.12    -0.01  -0.01   0.02
  51   1     0.02   0.04  -0.02    -0.00   0.04   0.14     0.00  -0.01   0.02
  52   1     0.02   0.01  -0.01    -0.10   0.07   0.03    -0.01  -0.00   0.00
  53   1     0.04   0.02  -0.01    -0.08   0.07   0.10    -0.02  -0.00   0.01
  54   1     0.03  -0.02  -0.00    -0.04   0.02   0.00    -0.01   0.00  -0.01
  55   1     0.04   0.00  -0.01     0.02   0.01   0.06    -0.00  -0.00  -0.00
  56   6    -0.03  -0.17   0.05    -0.04  -0.02  -0.11    -0.04  -0.06  -0.05
  57   8    -0.08  -0.31   0.05    -0.14  -0.06  -0.21    -0.16  -0.23  -0.12
  58   6    -0.04  -0.02   0.08     0.03  -0.06  -0.14    -0.07   0.23   0.08
  59   8    -0.08   0.05   0.07     0.03  -0.12  -0.22    -0.15   0.51   0.22
                      4                      5                      6
                        a                      a                      a 
 Frequencies --    30.0959                40.9104                43.3653
 Red. masses --    12.2662                16.5813                15.3500
 Frc consts  --     0.0000                 0.0000                 0.0000
 IR Inten    --     0.5462                 0.0826                 0.1014
 Raman Activ --     0.0000                 0.0000                 0.0000
 Depolar     --     0.0000                 0.0000                 0.0000
 Atom AN      X      Y      Z        X      Y      Z        X      Y      Z
   1  28    -0.06   0.08   0.09     0.03  -0.18  -0.11    -0.07  -0.09  -0.12
   2   7    -0.03   0.02   0.06    -0.01  -0.12  -0.00     0.05   0.01  -0.05
   3   6    -0.03   0.01   0.05     0.01  -0.08  -0.01     0.03   0.00  -0.01
   4   7    -0.08  -0.06   0.09     0.04  -0.05  -0.02     0.06   0.01   0.02
   5   6    -0.07  -0.05   0.08     0.09   0.03  -0.05     0.02  -0.01   0.07
   6   6    -0.03  -0.08  -0.05     0.01   0.11  -0.06     0.03  -0.02   0.14
   7   6     0.04   0.02  -0.12    -0.02   0.07  -0.04    -0.02  -0.02   0.13
   8   6     0.06   0.06  -0.13    -0.07  -0.01   0.01    -0.02  -0.02   0.07
   9   6     0.04   0.10  -0.01    -0.01  -0.09  -0.00    -0.02  -0.02   0.01
  10   6    -0.13  -0.15   0.11     0.03  -0.06  -0.02     0.10   0.01   0.02
  11   6    -0.10  -0.15   0.07    -0.01  -0.10  -0.01     0.14   0.01  -0.02
  12   6    -0.08  -0.04   0.09    -0.00  -0.13   0.00     0.10   0.02  -0.07
  13   1    -0.04  -0.03   0.04     0.04   0.02  -0.02     0.01  -0.00   0.02
  14   1    -0.01   0.01   0.03     0.04   0.00  -0.01    -0.01  -0.01   0.02
  15   1    -0.01  -0.03  -0.01     0.02   0.05  -0.03     0.00  -0.01   0.05
  16   1    -0.01  -0.05  -0.03    -0.02   0.04  -0.02     0.02  -0.00   0.04
  17   1     0.02   0.03  -0.02     0.01   0.02  -0.01    -0.02  -0.01   0.04
  18   1     0.02   0.00  -0.06    -0.02   0.04  -0.01    -0.01  -0.01   0.05
  19   1     0.01  -0.01  -0.05    -0.03   0.01   0.01     0.01  -0.00   0.02
  20   1     0.03   0.04  -0.06    -0.03  -0.01   0.01    -0.02  -0.01   0.02
  21   1     0.02   0.04  -0.01    -0.01  -0.04   0.01    -0.01  -0.01  -0.00
  22   1     0.02   0.04   0.01     0.01  -0.03  -0.01    -0.01  -0.01   0.00
  23   1    -0.04  -0.07   0.02     0.01  -0.01  -0.01     0.04   0.00   0.02
  24   1    -0.05  -0.04   0.05     0.02  -0.02  -0.00     0.03   0.00   0.00
  25   1    -0.02  -0.05   0.00    -0.01  -0.02  -0.01     0.04   0.00   0.00
  26   1    -0.04  -0.06   0.03    -0.00  -0.03  -0.00     0.05   0.00  -0.01
  27   1    -0.02  -0.01   0.02    -0.01  -0.04   0.00     0.04   0.01  -0.03
  28   1    -0.03  -0.01   0.04     0.01  -0.04   0.00     0.02   0.01  -0.03
  29   7    -0.07   0.07   0.10    -0.00  -0.07  -0.04    -0.02  -0.04  -0.09
  30   6    -0.03   0.00   0.01    -0.02  -0.04  -0.01    -0.04  -0.01  -0.04
  31   7    -0.02  -0.05  -0.05    -0.03  -0.01   0.03    -0.05   0.03   0.00
  32   6     0.02  -0.15  -0.17    -0.02  -0.02   0.02    -0.06   0.05   0.04
  33   6     0.16  -0.10  -0.26    -0.04   0.00  -0.02    -0.12   0.05   0.03
  34   6     0.16  -0.07  -0.23    -0.04  -0.03  -0.05    -0.11   0.02  -0.01
  35   6     0.13   0.02  -0.11    -0.03  -0.04  -0.05    -0.10  -0.01  -0.06
  36   6     0.00  -0.01  -0.03    -0.02  -0.05  -0.03    -0.04  -0.02  -0.06
  37   6    -0.04  -0.02  -0.01    -0.04   0.05   0.10    -0.05   0.03   0.01
  38   6    -0.04   0.11   0.08    -0.06   0.01   0.03    -0.06  -0.04  -0.05
  39   6    -0.10   0.10   0.16     0.01  -0.05  -0.03    -0.00  -0.05  -0.11
  40   1     0.00  -0.06  -0.06    -0.01  -0.00   0.01    -0.02   0.02   0.02
  41   1    -0.01  -0.06  -0.05    -0.00  -0.01   0.00    -0.01   0.01   0.01
  42   1     0.05  -0.05  -0.10    -0.01   0.00  -0.01    -0.04   0.02   0.02
  43   1     0.07  -0.00  -0.07    -0.01   0.01  -0.01    -0.05   0.01   0.01
  44   1     0.03  -0.04  -0.08    -0.01  -0.02  -0.02    -0.02   0.01  -0.00
  45   1     0.07  -0.01  -0.09    -0.02  -0.00  -0.02    -0.04   0.01  -0.01
  46   1     0.05   0.03  -0.02    -0.01  -0.01  -0.01    -0.04  -0.00  -0.02
  47   1     0.04   0.01  -0.03    -0.01  -0.02  -0.02    -0.03  -0.01  -0.03
  48   1    -0.01   0.01   0.01    -0.00  -0.02  -0.01    -0.01  -0.01  -0.03
  49   1    -0.02  -0.03  -0.02    -0.00  -0.02  -0.01    -0.00  -0.00  -0.01
  50   1     0.01  -0.01  -0.02    -0.03   0.03   0.04    -0.03   0.02   0.02
  51   1    -0.03  -0.03   0.00     0.01   0.02   0.04     0.00   0.02   0.01
  52   1     0.01   0.05   0.01    -0.04  -0.00   0.00    -0.03  -0.02  -0.01
  53   1    -0.02   0.04   0.04    -0.02   0.01   0.02    -0.01  -0.01  -0.02
  54   1    -0.03   0.06   0.07     0.00  -0.03  -0.02    -0.00  -0.03  -0.05
  55   1    -0.05   0.01   0.06     0.03  -0.01  -0.01     0.02  -0.00  -0.04
  56   6     0.10   0.12   0.09     0.02   0.14  -0.07     0.20  -0.08   0.05
  57   8     0.28   0.27   0.23     0.10   0.54  -0.14     0.57  -0.05   0.40
  58   6    -0.03  -0.01  -0.04     0.02   0.03   0.14    -0.16   0.05  -0.09
  59   8    -0.03  -0.08  -0.13     0.04   0.28   0.56    -0.28   0.25  -0.13
                      7                      8                      9
                        a                      a                      a 
 Frequencies --    56.7840                58.7106                65.9066
 Red. masses --    13.2707                13.6312                 9.8302
 Frc consts  --     0.0000                 0.0000                 0.0000
 IR Inten    --     0.1749                 0.4946                 0.1837
 Raman Activ --     0.0000                 0.0000                 0.0000
 Depolar     --     0.0000                 0.0000                 0.0000
 Atom AN      X      Y      Z        X      Y      Z        X      Y      Z
   1  28    -0.20  -0.01  -0.03     0.07  -0.08   0.11    -0.09   0.07   0.07
   2   7     0.07   0.12  -0.01    -0.00  -0.08   0.14    -0.07   0.03   0.02
   3   6     0.09   0.15  -0.02     0.05  -0.02   0.06    -0.07   0.02   0.01
   4   7     0.08   0.14  -0.01     0.05   0.03  -0.02    -0.09   0.00   0.01
   5   6    -0.05  -0.06   0.06     0.02  -0.07  -0.05    -0.08   0.00  -0.00
   6   6     0.13  -0.25   0.10     0.09  -0.15  -0.00    -0.07   0.00  -0.04
   7   6     0.17  -0.13   0.01     0.11  -0.16   0.01    -0.05   0.02  -0.05
   8   6     0.29   0.04  -0.15     0.15  -0.10   0.01    -0.04   0.02  -0.03
   9   6     0.16   0.23  -0.07     0.10  -0.02   0.04    -0.04   0.03   0.00
  10   6     0.12   0.17  -0.02     0.11   0.21  -0.07    -0.07   0.03   0.00
  11   6     0.05   0.12  -0.00    -0.08   0.12   0.06    -0.08   0.03   0.02
  12   6     0.06   0.04   0.03    -0.04  -0.13   0.16    -0.07   0.01   0.03
  13   1    -0.05  -0.04   0.03    -0.01  -0.02  -0.03    -0.03  -0.00   0.00
  14   1    -0.05   0.00   0.01    -0.00  -0.03  -0.02    -0.02   0.01   0.00
  15   1     0.01  -0.12   0.07     0.01  -0.06   0.00    -0.02   0.00  -0.01
  16   1     0.10  -0.09   0.02     0.04  -0.04   0.00    -0.03  -0.00  -0.01
  17   1     0.00  -0.02   0.02     0.02  -0.05   0.00    -0.01   0.01  -0.01
  18   1     0.08  -0.07   0.01     0.04  -0.06   0.01    -0.01   0.00  -0.02
  19   1     0.12  -0.03  -0.07     0.05  -0.03  -0.00    -0.02   0.00  -0.01
  20   1     0.10   0.05  -0.07     0.06  -0.02  -0.00    -0.01   0.01  -0.01
  21   1     0.07   0.11  -0.04     0.04   0.01   0.01    -0.01   0.01   0.00
  22   1     0.01   0.08   0.00     0.02  -0.01   0.01    -0.01   0.01   0.00
  23   1     0.04   0.08  -0.00     0.03   0.14  -0.02    -0.02   0.02   0.00
  24   1     0.06   0.04  -0.02     0.09   0.04  -0.06    -0.02   0.01  -0.01
  25   1    -0.00   0.04  -0.00    -0.07   0.06   0.03    -0.03   0.01   0.01
  26   1     0.02   0.03   0.00    -0.03   0.05   0.01    -0.03   0.01   0.00
  27   1    -0.00  -0.01   0.01    -0.06  -0.08   0.07    -0.03  -0.00   0.01
  28   1     0.04   0.00   0.02     0.05  -0.07   0.06    -0.01  -0.00   0.01
  29   7    -0.08  -0.05  -0.06     0.02  -0.06   0.05     0.11  -0.12  -0.18
  30   6    -0.07  -0.03  -0.03    -0.02  -0.02   0.04     0.05  -0.02  -0.04
  31   7    -0.09  -0.02  -0.00    -0.01   0.02   0.02     0.03   0.03   0.04
  32   6    -0.08  -0.01   0.02    -0.03  -0.01  -0.07     0.06  -0.04  -0.03
  33   6    -0.10  -0.01   0.02     0.02   0.02  -0.12     0.16  -0.01  -0.09
  34   6    -0.09  -0.02  -0.01    -0.03  -0.01  -0.07     0.12  -0.02  -0.04
  35   6    -0.09  -0.03  -0.03    -0.02  -0.02   0.06     0.12  -0.00   0.06
  36   6    -0.07  -0.03  -0.03    -0.07  -0.02   0.07     0.03   0.02   0.03
  37   6    -0.09  -0.02   0.00     0.03   0.07   0.06     0.01   0.26   0.31
  38   6    -0.10  -0.05  -0.03     0.04  -0.00   0.03    -0.08  -0.05  -0.05
  39   6    -0.07  -0.05  -0.07     0.08  -0.06   0.01     0.26  -0.20  -0.37
  40   1    -0.02  -0.00   0.01    -0.01  -0.00  -0.03     0.01  -0.03  -0.01
  41   1    -0.02  -0.00   0.01    -0.03  -0.02  -0.02     0.01  -0.02  -0.01
  42   1    -0.03  -0.00   0.01     0.00   0.00  -0.07     0.05  -0.01  -0.06
  43   1    -0.04  -0.00   0.00     0.03   0.02  -0.03     0.07   0.02  -0.02
  44   1    -0.02  -0.01  -0.00    -0.03  -0.01  -0.03     0.02  -0.01  -0.02
  45   1    -0.03  -0.00  -0.00     0.00   0.00  -0.03     0.05  -0.00  -0.02
  46   1    -0.03  -0.01  -0.01     0.02  -0.00   0.02     0.06  -0.01   0.02
  47   1    -0.03  -0.01  -0.01    -0.02  -0.01   0.03     0.03   0.01   0.04
  48   1    -0.02  -0.01  -0.01    -0.02  -0.01   0.04     0.01   0.02   0.03
  49   1    -0.02  -0.01  -0.01    -0.04  -0.01   0.01    -0.01   0.01   0.00
  50   1    -0.03  -0.00   0.01    -0.01   0.04   0.02    -0.10   0.16   0.16
  51   1    -0.02  -0.00   0.00     0.03   0.03   0.02     0.14   0.11   0.16
  52   1    -0.04  -0.02  -0.01    -0.00  -0.01   0.01    -0.13  -0.06  -0.02
  53   1    -0.03  -0.02  -0.01     0.02   0.00   0.01    -0.01  -0.01  -0.01
  54   1    -0.02  -0.02  -0.03     0.03  -0.04  -0.00     0.08  -0.18  -0.19
  55   1    -0.01  -0.01  -0.02     0.04  -0.00  -0.00     0.20   0.02  -0.15
  56   6    -0.06   0.04  -0.00    -0.06   0.06  -0.00    -0.05  -0.01   0.04
  57   8     0.01   0.13   0.05    -0.19   0.22  -0.18     0.02  -0.07   0.14
  58   6     0.01  -0.05   0.06    -0.13   0.04  -0.07    -0.00  -0.01   0.03
  59   8     0.18  -0.30   0.26    -0.36   0.32  -0.34     0.04  -0.12   0.03
                     10                     11                     12
                        a                      a                      a 
 Frequencies --    69.8906                75.2504                82.8060
 Red. masses --    16.4762                10.7510                12.5677
 Frc consts  --     0.0000                 0.0000                 0.0000
 IR Inten    --     1.1663                 0.3406                 1.3928
 Raman Activ --     0.0000                 0.0000                 0.0000
 Depolar     --     0.0000                 0.0000                 0.0000
 Atom AN      X      Y      Z        X      Y      Z        X      Y      Z
   1  28    -0.04  -0.07   0.32    -0.00  -0.16  -0.03    -0.13  -0.12   0.12
   2   7     0.09   0.14  -0.11     0.10   0.05  -0.16     0.02  -0.03   0.03
   3   6     0.02   0.03  -0.05     0.06   0.01  -0.10     0.02  -0.03   0.02
   4   7    -0.01  -0.03  -0.01     0.09   0.01  -0.05     0.02  -0.02   0.01
   5   6    -0.00   0.00   0.01     0.06   0.01   0.02     0.03  -0.02  -0.01
   6   6    -0.02   0.02  -0.03     0.05   0.02   0.07     0.03  -0.02  -0.03
   7   6    -0.00   0.05  -0.05    -0.01   0.02   0.05     0.04  -0.02  -0.02
   8   6    -0.02   0.03  -0.04    -0.01   0.02  -0.02     0.03  -0.02  -0.00
   9   6    -0.00   0.01  -0.04    -0.00   0.01  -0.08     0.03  -0.03   0.02
  10   6    -0.10  -0.16   0.04     0.04  -0.13  -0.00     0.01  -0.01   0.00
  11   6     0.16   0.02  -0.06     0.18  -0.07  -0.10     0.01   0.00   0.02
  12   6     0.11   0.29  -0.18     0.14   0.11  -0.19     0.01  -0.00   0.02
  13   1     0.00  -0.00   0.01     0.03   0.00   0.01     0.01  -0.01  -0.01
  14   1     0.00   0.01   0.01     0.00   0.00   0.00     0.01  -0.01  -0.00
  15   1    -0.00   0.01  -0.01     0.01   0.00   0.03     0.01  -0.00  -0.01
  16   1    -0.01  -0.00  -0.01     0.03   0.00   0.02     0.00  -0.00  -0.01
  17   1     0.01   0.02  -0.01    -0.01   0.01   0.02     0.02  -0.01  -0.01
  18   1    -0.00   0.02  -0.02    -0.00   0.01   0.02     0.01  -0.00  -0.01
  19   1    -0.01   0.01  -0.01     0.01   0.00  -0.01     0.00  -0.01  -0.00
  20   1    -0.01   0.01  -0.01    -0.02   0.01  -0.01     0.01  -0.01  -0.00
  21   1    -0.00   0.00  -0.01    -0.01   0.00  -0.03     0.01  -0.01   0.01
  22   1     0.00   0.00  -0.01    -0.01   0.00  -0.02     0.01  -0.01   0.00
  23   1    -0.03  -0.14   0.01     0.01  -0.09  -0.00     0.00  -0.01  -0.00
  24   1    -0.11  -0.02   0.04    -0.03  -0.03   0.03    -0.00  -0.00   0.00
  25   1     0.11  -0.02  -0.01     0.09  -0.04  -0.03     0.00  -0.00   0.01
  26   1     0.05   0.02  -0.02     0.06  -0.02  -0.03     0.00   0.00   0.00
  27   1     0.09   0.15  -0.06     0.08   0.07  -0.07     0.00   0.00   0.01
  28   1    -0.05   0.12  -0.08    -0.01   0.05  -0.07     0.00  -0.00   0.00
  29   7     0.10  -0.12   0.02    -0.10   0.01   0.12     0.02   0.08  -0.15
  30   6     0.06  -0.08   0.02    -0.13   0.03   0.07     0.07  -0.01  -0.24
  31   7     0.06  -0.01   0.05    -0.11   0.02  -0.05     0.10  -0.14  -0.36
  32   6     0.01   0.05   0.07    -0.12  -0.06  -0.22     0.08   0.01  -0.11
  33   6    -0.12   0.06   0.02     0.13  -0.06  -0.19     0.00  -0.15   0.23
  34   6    -0.11  -0.02  -0.09    -0.01  -0.00   0.13     0.04  -0.03   0.32
  35   6    -0.09  -0.08  -0.13    -0.00   0.01   0.38     0.03  -0.07   0.01
  36   6     0.03  -0.14  -0.05    -0.19   0.11   0.23     0.12   0.04  -0.21
  37   6     0.10  -0.02   0.02    -0.05   0.15   0.07    -0.01   0.13   0.01
  38   6     0.13  -0.09   0.01    -0.04   0.12   0.08    -0.10   0.34   0.03
  39   6     0.13  -0.10   0.01     0.01   0.02   0.07    -0.01   0.17  -0.01
  40   1     0.01   0.04   0.04    -0.03  -0.04  -0.12     0.02  -0.01  -0.06
  41   1     0.02   0.00   0.02    -0.09  -0.01  -0.06     0.02   0.07  -0.02
  42   1    -0.04   0.03   0.03     0.03  -0.03  -0.13    -0.00  -0.03   0.13
  43   1    -0.06   0.02   0.00     0.12  -0.02  -0.04    -0.03  -0.12   0.05
  44   1    -0.02  -0.02  -0.02    -0.07   0.02   0.02     0.04   0.07   0.11
  45   1    -0.05   0.00  -0.04     0.03  -0.01   0.06    -0.01  -0.04   0.16
  46   1    -0.04  -0.01  -0.04     0.07  -0.04   0.12    -0.04  -0.07  -0.02
  47   1    -0.03  -0.04  -0.07    -0.02   0.02   0.19     0.02  -0.00   0.01
  48   1     0.01  -0.06  -0.02    -0.06   0.05   0.10     0.04   0.01  -0.09
  49   1     0.02  -0.05  -0.01    -0.09   0.06   0.05     0.06   0.05  -0.04
  50   1     0.02  -0.00   0.01    -0.03   0.08   0.02    -0.03   0.09  -0.00
  51   1     0.04   0.01  -0.00     0.01   0.04   0.05     0.02  -0.00   0.08
  52   1     0.03  -0.04   0.01    -0.03   0.04   0.01    -0.05   0.14  -0.05
  53   1     0.05  -0.03  -0.01     0.00   0.05   0.03    -0.05   0.13   0.07
  54   1     0.04  -0.04   0.00     0.01  -0.02   0.02    -0.01   0.05  -0.01
  55   1     0.04  -0.02  -0.00     0.03   0.02   0.02     0.03   0.03   0.03
  56   6    -0.10   0.03   0.11     0.03  -0.05   0.00    -0.09  -0.05   0.04
  57   8    -0.14   0.36  -0.02    -0.04  -0.01  -0.09    -0.04   0.11   0.05
  58   6    -0.07  -0.01   0.11    -0.04  -0.02  -0.01    -0.07  -0.04   0.07
  59   8    -0.14  -0.12  -0.21    -0.04  -0.03   0.02    -0.13  -0.02  -0.04
                     13                     14                     15
                        a                      a                      a 
 Frequencies --    88.4538                93.0960                94.3688
 Red. masses --    11.1936                15.4170                11.9601
 Frc consts  --     0.0000                 0.0000                 0.0000
 IR Inten    --     0.9990                 1.2466                 0.5399
 Raman Activ --     0.0000                 0.0000                 0.0000
 Depolar     --     0.0000                 0.0000                 0.0000
 Atom AN      X      Y      Z        X      Y      Z        X      Y      Z
   1  28    -0.15  -0.05  -0.03    -0.10  -0.28   0.15     0.09   0.10  -0.14
   2   7     0.15   0.04   0.15    -0.05  -0.14  -0.08     0.00   0.01   0.11
   3   6     0.11  -0.07   0.11    -0.07  -0.10  -0.02    -0.06  -0.10   0.15
   4   7     0.05  -0.11   0.06    -0.04  -0.12   0.05    -0.17  -0.23   0.20
   5   6     0.15  -0.04  -0.08    -0.06  -0.07   0.12    -0.07  -0.10   0.12
   6   6     0.08   0.06  -0.20    -0.04  -0.09   0.03    -0.11  -0.03  -0.18
   7   6     0.18  -0.06  -0.09    -0.09   0.11  -0.13     0.01   0.12  -0.28
   8   6     0.13  -0.13   0.17    -0.12   0.06  -0.26    -0.07   0.01  -0.12
   9   6     0.16  -0.18   0.15    -0.08   0.01  -0.06    -0.00  -0.08   0.12
  10   6    -0.09  -0.13   0.08     0.22   0.09  -0.03     0.09   0.14   0.07
  11   6     0.08   0.05   0.10     0.18   0.07  -0.02     0.21   0.31   0.13
  12   6     0.09   0.20   0.09     0.09  -0.14  -0.11     0.11   0.14   0.02
  13   1     0.04  -0.00  -0.03    -0.02  -0.04   0.06    -0.04  -0.05   0.06
  14   1     0.09  -0.02  -0.01    -0.03   0.01   0.04     0.01   0.02   0.06
  15   1     0.04   0.04  -0.12    -0.02  -0.03   0.05    -0.02   0.01  -0.07
  16   1    -0.04   0.04  -0.05     0.01  -0.07  -0.02    -0.08  -0.05  -0.08
  17   1     0.10  -0.04  -0.04    -0.02   0.08  -0.01     0.07   0.07  -0.06
  18   1     0.04  -0.00  -0.04    -0.03   0.04  -0.07    -0.01   0.06  -0.15
  19   1     0.00   0.01   0.08    -0.05  -0.04  -0.11    -0.08  -0.01  -0.04
  20   1     0.05  -0.08   0.08    -0.03   0.06  -0.11     0.01   0.02  -0.05
  21   1     0.05  -0.07   0.07    -0.03   0.00  -0.03    -0.00  -0.03   0.05
  22   1     0.06  -0.07   0.02    -0.00   0.03   0.00     0.04  -0.01   0.04
  23   1    -0.03  -0.10   0.01     0.08   0.09   0.03     0.05   0.07   0.07
  24   1    -0.09  -0.02   0.04     0.11   0.02  -0.07     0.03   0.05  -0.07
  25   1     0.07  -0.01   0.04     0.02   0.04   0.03     0.07   0.09   0.12
  26   1     0.01   0.04   0.02     0.09   0.04  -0.02     0.10   0.15   0.01
  27   1     0.06   0.11   0.03     0.01  -0.06  -0.04     0.04   0.05   0.01
  28   1    -0.03   0.08  -0.00     0.06  -0.06  -0.05     0.04   0.03  -0.04
  29   7    -0.11   0.10  -0.10    -0.01   0.14  -0.03    -0.01  -0.09   0.03
  30   6    -0.08   0.11  -0.01     0.02   0.13   0.04    -0.02  -0.08  -0.01
  31   7    -0.11   0.08   0.07     0.00   0.13   0.11    -0.01  -0.07  -0.07
  32   6    -0.03  -0.00   0.05     0.06   0.06   0.10    -0.06  -0.03  -0.07
  33   6     0.05   0.03   0.00     0.12   0.09   0.05    -0.08  -0.05  -0.04
  34   6     0.11   0.07  -0.05     0.18   0.11  -0.01    -0.13  -0.06   0.04
  35   6     0.07   0.15  -0.03     0.15   0.18  -0.01    -0.10  -0.11   0.06
  36   6    -0.02   0.14   0.01     0.08   0.16   0.03    -0.07  -0.09   0.01
  37   6    -0.14  -0.04  -0.05    -0.01  -0.04  -0.07     0.01   0.03   0.03
  38   6    -0.16  -0.11  -0.13    -0.00  -0.06  -0.08     0.01   0.05   0.06
  39   6    -0.15   0.01  -0.18    -0.06   0.08  -0.06     0.03  -0.03   0.07
  40   1    -0.02  -0.02   0.03     0.01   0.01   0.04    -0.01  -0.00  -0.03
  41   1     0.00  -0.01   0.01     0.03   0.01   0.03    -0.03  -0.00  -0.02
  42   1     0.02  -0.01  -0.00     0.04   0.01   0.02    -0.03  -0.00  -0.02
  43   1     0.01   0.02   0.00     0.03   0.04   0.01    -0.01  -0.02  -0.01
  44   1     0.04   0.00  -0.01     0.06   0.01  -0.00    -0.05  -0.00   0.01
  45   1     0.05   0.03  -0.03     0.06   0.04  -0.02    -0.04  -0.02   0.02
  46   1     0.02   0.06  -0.01     0.04   0.07  -0.00    -0.02  -0.05   0.02
  47   1     0.03   0.05  -0.01     0.05   0.06  -0.01    -0.04  -0.04   0.03
  48   1    -0.01   0.06   0.00     0.02   0.06   0.01    -0.02  -0.03   0.00
  49   1    -0.00   0.03   0.00     0.03   0.03   0.01    -0.02  -0.01   0.00
  50   1    -0.04  -0.04   0.00     0.02  -0.06  -0.02    -0.01   0.03   0.00
  51   1    -0.05   0.00  -0.04    -0.03  -0.00  -0.06     0.01  -0.00   0.03
  52   1    -0.04  -0.05  -0.01     0.02  -0.03   0.00    -0.01   0.03   0.00
  53   1    -0.05  -0.05  -0.06    -0.01  -0.04  -0.05     0.01   0.03   0.03
  54   1    -0.05  -0.00  -0.07    -0.02   0.04  -0.01     0.01  -0.01   0.02
  55   1    -0.05   0.02  -0.07    -0.04   0.02  -0.03     0.02  -0.01   0.03
  56   6    -0.07   0.01  -0.02    -0.05  -0.10   0.07     0.05   0.06  -0.07
  57   8    -0.07  -0.02  -0.01    -0.06   0.07   0.01     0.06  -0.07  -0.03
  58   6    -0.07  -0.03  -0.03    -0.07  -0.08   0.11     0.06   0.02  -0.08
  59   8    -0.07  -0.02   0.02    -0.14  -0.03   0.03     0.10   0.03   0.02
                     16                     17                     18
                        a                      a                      a 
 Frequencies --   156.8215               161.5505               176.2890
 Red. masses --    17.5265                14.7687                25.0952
 Frc consts  --     0.0000                 0.0000                 0.0000
 IR Inten    --     0.2242                 0.2377                 0.4082
 Raman Activ --     0.0000                 0.0000                 0.0000
 Depolar     --     0.0000                 0.0000                 0.0000
 Atom AN      X      Y      Z        X      Y      Z        X      Y      Z
   1  28     0.36  -0.01   0.20     0.07  -0.31  -0.13    -0.20   0.50   0.11
   2   7    -0.04  -0.08   0.04    -0.12  -0.10   0.19     0.00  -0.18   0.04
   3   6    -0.02  -0.05   0.01    -0.06  -0.04   0.09     0.02  -0.19  -0.00
   4   7     0.07   0.07  -0.04     0.09   0.22  -0.05     0.20   0.01  -0.09
   5   6     0.03   0.01  -0.01     0.02   0.04  -0.05     0.17  -0.04  -0.07
   6   6     0.06  -0.04   0.12     0.11  -0.08   0.19     0.19  -0.07   0.11
   7   6    -0.05   0.06   0.02    -0.04   0.08   0.04    -0.02   0.06  -0.02
   8   6    -0.06   0.02  -0.14    -0.05   0.04  -0.21    -0.11  -0.09  -0.21
   9   6    -0.01  -0.04  -0.00     0.01  -0.02   0.06     0.01  -0.24   0.01
  10   6    -0.06  -0.01  -0.00    -0.28  -0.01   0.05     0.10  -0.08  -0.04
  11   6    -0.01   0.05   0.01    -0.10   0.22   0.10     0.07  -0.08  -0.02
  12   6    -0.03   0.06  -0.02    -0.13   0.24   0.04     0.05  -0.08  -0.03
  13   1     0.01   0.01  -0.02     0.00   0.03  -0.05     0.06   0.01  -0.04
  14   1    -0.01  -0.02  -0.01    -0.02  -0.03  -0.03     0.04  -0.05  -0.03
  15   1     0.00  -0.03   0.09     0.00  -0.06   0.14     0.04  -0.03   0.11
  16   1     0.07  -0.03   0.02     0.13  -0.05   0.04     0.13  -0.05   0.02
  17   1    -0.03   0.04   0.02    -0.04   0.06   0.04    -0.01   0.05   0.02
  18   1    -0.02   0.02   0.01    -0.01   0.02   0.01    -0.03   0.05  -0.01
  19   1    -0.02  -0.04  -0.07    -0.02  -0.07  -0.12    -0.05  -0.10  -0.10
  20   1    -0.03   0.05  -0.08    -0.02   0.09  -0.13    -0.05   0.03  -0.11
  21   1    -0.01  -0.02   0.01     0.00  -0.02   0.05    -0.01  -0.11   0.03
  22   1     0.03  -0.01   0.00     0.05   0.00   0.02     0.06  -0.07  -0.01
  23   1    -0.02  -0.04  -0.02    -0.10  -0.12  -0.04     0.02  -0.03  -0.03
  24   1    -0.05   0.01   0.02    -0.19   0.03   0.07     0.02  -0.02   0.01
  25   1     0.01   0.01   0.02     0.02   0.05   0.08     0.02  -0.02  -0.00
  26   1     0.00   0.03  -0.00    -0.02   0.11   0.01     0.02  -0.02  -0.01
  27   1     0.01   0.04   0.00     0.01   0.14   0.04     0.03  -0.01  -0.00
  28   1    -0.03   0.03  -0.03    -0.09   0.09  -0.06    -0.00  -0.02  -0.03
  29   7    -0.15   0.11   0.16     0.07  -0.05  -0.11     0.00  -0.01  -0.04
  30   6    -0.14   0.07   0.06     0.06  -0.02  -0.05     0.02  -0.03  -0.03
  31   7    -0.08  -0.17  -0.21     0.03   0.09   0.09    -0.00   0.01   0.03
  32   6    -0.11  -0.08  -0.09     0.05   0.04   0.05     0.00  -0.01   0.00
  33   6    -0.16  -0.19   0.14     0.09   0.08  -0.05    -0.00   0.03  -0.08
  34   6     0.07  -0.03  -0.04    -0.01   0.01   0.02    -0.09  -0.02   0.00
  35   6    -0.05   0.21  -0.21     0.04  -0.08   0.07    -0.04  -0.09   0.06
  36   6    -0.14   0.07   0.05     0.06  -0.02  -0.04     0.02  -0.03  -0.04
  37   6    -0.07   0.04   0.03     0.01  -0.02  -0.03    -0.04  -0.03   0.01
  38   6    -0.06  -0.09  -0.05    -0.00   0.04   0.01    -0.06  -0.02  -0.00
  39   6     0.00  -0.05  -0.13    -0.01   0.02   0.03    -0.05  -0.01  -0.02
  40   1    -0.03  -0.03  -0.06     0.01   0.01   0.03     0.00   0.00   0.02
  41   1    -0.05   0.02  -0.02     0.03  -0.01   0.01     0.01  -0.02  -0.00
  42   1    -0.03  -0.07   0.15     0.02   0.03  -0.06    -0.01   0.01  -0.06
  43   1    -0.14  -0.11   0.02     0.06   0.05  -0.01     0.03   0.02  -0.02
  44   1     0.08  -0.03  -0.00    -0.02   0.01   0.00    -0.05   0.01  -0.00
  45   1     0.04  -0.00  -0.02    -0.01   0.00   0.01    -0.03  -0.01   0.01
  46   1    -0.09   0.14  -0.06     0.04  -0.05   0.02     0.01  -0.06   0.02
  47   1     0.04   0.07  -0.15    -0.01  -0.02   0.06    -0.03  -0.03   0.05
  48   1    -0.05   0.03   0.05     0.02  -0.01  -0.02     0.01  -0.02  -0.03
  49   1    -0.07  -0.02  -0.00     0.03   0.01  -0.00     0.02   0.01  -0.00
  50   1    -0.07   0.07   0.03     0.03  -0.04  -0.01    -0.01  -0.02   0.01
  51   1     0.05   0.02   0.06    -0.03  -0.01  -0.03    -0.02  -0.01  -0.00
  52   1    -0.04  -0.05   0.00     0.01   0.03  -0.01    -0.02  -0.00  -0.00
  53   1    -0.01  -0.04  -0.04    -0.01   0.02   0.01    -0.02  -0.00   0.00
  54   1     0.02  -0.09  -0.07    -0.01   0.04   0.02    -0.02   0.01  -0.01
  55   1     0.04   0.05  -0.10    -0.02  -0.02   0.04    -0.02  -0.01   0.00
  56   6     0.11   0.04   0.06     0.03  -0.00  -0.09    -0.17   0.12   0.04
  57   8    -0.01  -0.03  -0.05     0.07  -0.03  -0.06    -0.10  -0.02   0.20
  58   6     0.13  -0.02  -0.01    -0.00  -0.13  -0.10     0.12   0.03   0.05
  59   8     0.09   0.08  -0.05    -0.03   0.04   0.05     0.08   0.08  -0.07
                     19                     20                     21
                        a                      a                      a 
 Frequencies --   183.9358               215.1394               232.0032
 Red. masses --    26.4804                16.6950                 9.9227
 Frc consts  --     0.0000                 0.0000                 0.0000
 IR Inten    --     0.6360                 2.9465                 0.7322
 Raman Activ --     0.0000                 0.0000                 0.0000
 Depolar     --     0.0000                 0.0000                 0.0000
 Atom AN      X      Y      Z        X      Y      Z        X      Y      Z
   1  28    -0.49   0.03  -0.31    -0.11   0.05  -0.28     0.06   0.02   0.01
   2   7    -0.01  -0.05   0.04    -0.02  -0.00   0.04     0.15   0.25  -0.01
   3   6    -0.00  -0.04   0.02    -0.02   0.00   0.04     0.04   0.02   0.04
   4   7     0.06   0.04  -0.01     0.00   0.04   0.02     0.03   0.07  -0.03
   5   6     0.05   0.00  -0.02     0.00   0.01   0.00    -0.05  -0.05   0.04
   6   6     0.07  -0.02   0.01     0.02  -0.01   0.02     0.01  -0.13   0.12
   7   6     0.03   0.00  -0.01     0.02   0.02  -0.01    -0.00   0.18  -0.12
   8   6    -0.00  -0.04  -0.04     0.00  -0.01  -0.01    -0.14  -0.03   0.01
   9   6     0.01  -0.06   0.02     0.01  -0.03   0.04     0.03  -0.26   0.14
  10   6    -0.01  -0.03   0.01    -0.05   0.02   0.03     0.08   0.11  -0.04
  11   6     0.02   0.01   0.02    -0.03   0.04   0.04    -0.17  -0.17  -0.09
  12   6     0.01   0.00   0.00    -0.03   0.02   0.04    -0.01   0.12   0.09
  13   1     0.01   0.00  -0.01    -0.00   0.01  -0.00    -0.02  -0.01   0.01
  14   1     0.02  -0.01  -0.01     0.00  -0.00  -0.00    -0.04  -0.03   0.00
  15   1     0.01  -0.01   0.02     0.00  -0.01   0.02    -0.02  -0.06   0.12
  16   1     0.04  -0.01   0.00     0.02  -0.01   0.00     0.08  -0.10  -0.00
  17   1     0.01   0.01   0.00     0.01   0.01   0.00     0.08   0.12   0.01
  18   1     0.00   0.01  -0.01     0.00   0.01  -0.01    -0.03   0.09  -0.14
  19   1    -0.01  -0.03  -0.02    -0.01  -0.01  -0.01    -0.10  -0.02  -0.00
  20   1    -0.00   0.00  -0.02     0.00   0.01  -0.01    -0.04  -0.00  -0.00
  21   1     0.00  -0.03   0.02     0.01  -0.02   0.03    -0.01  -0.14   0.11
  22   1     0.02  -0.02   0.00     0.02  -0.01   0.00     0.09  -0.11  -0.02
  23   1    -0.01  -0.03  -0.01    -0.02  -0.01  -0.00     0.02   0.11  -0.02
  24   1    -0.02  -0.00   0.02    -0.03   0.01   0.01     0.11   0.00  -0.01
  25   1     0.01  -0.00   0.02    -0.01   0.01   0.02    -0.07  -0.05  -0.16
  26   1     0.01   0.01   0.00    -0.01   0.02   0.01    -0.11  -0.15   0.03
  27   1     0.01   0.01   0.00    -0.01   0.01   0.01     0.00   0.03   0.02
  28   1    -0.01   0.00  -0.01    -0.01   0.00   0.01    -0.03   0.05   0.09
  29   7     0.03  -0.00   0.22    -0.02   0.05   0.08    -0.01   0.03   0.00
  30   6     0.01   0.01   0.15    -0.01   0.02   0.05     0.01   0.00  -0.02
  31   7     0.08  -0.06  -0.06     0.01  -0.02   0.00     0.00   0.01   0.00
  32   6     0.00   0.03  -0.03    -0.00  -0.02  -0.02     0.01   0.00  -0.01
  33   6    -0.03  -0.05   0.15     0.00  -0.04   0.00     0.01   0.01  -0.03
  34   6     0.13   0.01  -0.02     0.01  -0.02   0.01    -0.02   0.01   0.02
  35   6     0.06   0.13  -0.12    -0.01   0.02   0.00    -0.01  -0.02  -0.01
  36   6    -0.02  -0.01   0.13    -0.02   0.01   0.04     0.03  -0.01  -0.04
  37   6     0.21   0.10   0.04     0.02   0.02   0.03    -0.01   0.01   0.01
  38   6     0.28   0.01   0.07     0.03  -0.05   0.01    -0.01  -0.03  -0.01
  39   6     0.21  -0.00   0.13     0.00   0.02   0.01    -0.02   0.01  -0.01
  40   1     0.01   0.01  -0.05     0.00  -0.01  -0.02     0.00   0.00   0.00
  41   1    -0.03   0.05  -0.00    -0.01  -0.00  -0.00     0.00  -0.00  -0.00
  42   1     0.00  -0.02   0.12     0.00  -0.01   0.01     0.00   0.00  -0.02
  43   1    -0.08  -0.05   0.03    -0.00  -0.02  -0.00     0.02   0.01  -0.00
  44   1     0.08  -0.02  -0.00     0.00  -0.00   0.00    -0.01   0.02   0.01
  45   1     0.04   0.01  -0.03     0.01  -0.01   0.01    -0.01  -0.00   0.02
  46   1    -0.03   0.11  -0.04    -0.01   0.02   0.00    -0.00  -0.02  -0.00
  47   1     0.05   0.04  -0.11     0.00   0.01  -0.01    -0.00  -0.01   0.00
  48   1    -0.02  -0.00   0.08    -0.01  -0.01   0.01     0.01  -0.00  -0.03
  49   1    -0.04  -0.05   0.02    -0.01  -0.00   0.01     0.02   0.00  -0.00
  50   1     0.04   0.08   0.01    -0.01   0.02   0.02    -0.01   0.01   0.01
  51   1     0.10   0.04   0.03     0.02   0.01   0.02     0.01   0.01   0.00
  52   1     0.08  -0.01   0.04     0.01  -0.03   0.02    -0.00  -0.02   0.01
  53   1     0.10  -0.00   0.00     0.01  -0.03  -0.02    -0.00  -0.01  -0.01
  54   1     0.08  -0.03   0.05     0.00  -0.00   0.00    -0.01   0.00  -0.00
  55   1     0.07   0.02   0.02    -0.01   0.01  -0.01    -0.01   0.00  -0.01
  56   6     0.00   0.09  -0.06    -0.13  -0.58  -0.07     0.26  -0.07   0.07
  57   8    -0.00  -0.06  -0.01     0.15   0.18  -0.09     0.04   0.00  -0.22
  58   6    -0.17  -0.05  -0.16     0.22   0.15   0.54    -0.28   0.23   0.01
  59   8    -0.10  -0.05   0.12     0.07   0.01  -0.24    -0.09  -0.23   0.08
                     22                     23                     24
                        a                      a                      a 
 Frequencies --   236.0916               248.4077               257.2866
 Red. masses --     7.7251                11.6233                10.0632
 Frc consts  --     0.0000                 0.0000                 0.0000
 IR Inten    --     0.7718                 2.1118                 2.0137
 Raman Activ --     0.0000                 0.0000                 0.0000
 Depolar     --     0.0000                 0.0000                 0.0000
 Atom AN      X      Y      Z        X      Y      Z        X      Y      Z
   1  28     0.01  -0.01  -0.02    -0.03   0.17   0.02     0.06   0.01  -0.02
   2   7     0.03   0.05  -0.01     0.01  -0.08   0.04     0.20   0.15   0.02
   3   6     0.01   0.01   0.00     0.03  -0.08  -0.01     0.12  -0.05  -0.00
   4   7     0.01   0.02  -0.01    -0.05  -0.22   0.03    -0.10  -0.31   0.02
   5   6    -0.01  -0.01   0.01     0.13  -0.03  -0.12     0.08  -0.11  -0.12
   6   6     0.00  -0.03   0.02    -0.01   0.13   0.02    -0.09   0.07   0.10
   7   6     0.00   0.03  -0.03    -0.10  -0.09   0.17    -0.15   0.01   0.15
   8   6    -0.03  -0.01   0.01     0.03   0.07  -0.15    -0.02   0.15  -0.13
   9   6     0.00  -0.05   0.02     0.04   0.08  -0.09     0.10   0.00  -0.03
  10   6     0.02   0.02  -0.01    -0.08  -0.09  -0.01    -0.00   0.01  -0.09
  11   6    -0.03  -0.04  -0.03     0.07   0.14   0.11    -0.08   0.01   0.00
  12   6     0.00   0.03   0.01     0.00  -0.10   0.05     0.01   0.07   0.12
  13   1    -0.01  -0.00   0.00     0.08   0.04  -0.08     0.08   0.03  -0.09
  14   1    -0.01  -0.00   0.00     0.07  -0.07  -0.05     0.05  -0.12  -0.06
  15   1    -0.00  -0.01   0.02     0.01   0.06  -0.03    -0.01   0.04   0.02
  16   1     0.01  -0.02  -0.00    -0.03   0.09   0.04    -0.03   0.05   0.04
  17   1     0.02   0.02   0.00    -0.14  -0.08   0.02    -0.13  -0.01   0.04
  18   1    -0.01   0.02  -0.03     0.00  -0.07   0.15    -0.01  -0.04   0.10
  19   1    -0.02  -0.00   0.00     0.06  -0.04  -0.08     0.02  -0.02  -0.08
  20   1    -0.01  -0.00   0.00    -0.01   0.08  -0.09    -0.03   0.10  -0.09
  21   1    -0.00  -0.02   0.02     0.01   0.03  -0.05     0.00  -0.04   0.00
  22   1     0.01  -0.02  -0.00     0.02   0.05  -0.00     0.09   0.01  -0.01
  23   1     0.01   0.02  -0.00    -0.02  -0.06  -0.00     0.00   0.06  -0.01
  24   1     0.02  -0.00  -0.00    -0.07  -0.00  -0.03     0.04  -0.01  -0.08
  25   1    -0.01  -0.01  -0.04     0.03   0.05   0.13    -0.03  -0.00  -0.03
  26   1    -0.02  -0.03   0.00     0.05   0.12  -0.01    -0.06  -0.01   0.01
  27   1     0.00   0.01   0.00    -0.03  -0.06   0.03    -0.01   0.01   0.04
  28   1    -0.01   0.01   0.02     0.05  -0.05   0.00     0.01   0.02   0.07
  29   7     0.11  -0.17  -0.17    -0.00   0.08   0.03     0.03  -0.23  -0.12
  30   6     0.03  -0.03   0.01     0.05   0.02  -0.00    -0.10  -0.06  -0.02
  31   7     0.08  -0.11  -0.13     0.08  -0.10  -0.09    -0.16   0.19   0.17
  32   6     0.08   0.04   0.14     0.08  -0.01   0.05    -0.15   0.03  -0.07
  33   6    -0.11   0.04   0.12    -0.06   0.03  -0.04     0.11  -0.04   0.10
  34   6     0.06  -0.05  -0.27    -0.07  -0.01  -0.09     0.13   0.01   0.13
  35   6     0.04   0.11   0.16    -0.04  -0.01   0.09     0.08   0.02  -0.15
  36   6    -0.18   0.07   0.27     0.03   0.03   0.03    -0.09  -0.05  -0.03
  37   6    -0.02  -0.17  -0.14    -0.00  -0.05   0.02    -0.03   0.04  -0.09
  38   6    -0.13   0.30   0.03    -0.06   0.01  -0.02     0.04   0.08   0.03
  39   6     0.09  -0.08  -0.04    -0.02   0.02  -0.06     0.07  -0.09   0.07
  40   1     0.02   0.03   0.08     0.02   0.02   0.06    -0.04  -0.03  -0.11
  41   1     0.07   0.02   0.04     0.07  -0.02   0.01    -0.13   0.04  -0.01
  42   1    -0.02   0.01   0.12    -0.02   0.02  -0.01     0.04  -0.03   0.03
  43   1    -0.13   0.02   0.02    -0.03   0.02  -0.01     0.04  -0.04   0.03
  44   1     0.01  -0.17  -0.10    -0.04  -0.04  -0.03     0.08   0.06   0.05
  45   1     0.06   0.05  -0.22    -0.00   0.01  -0.06     0.00  -0.02   0.08
  46   1     0.09   0.07   0.07     0.03  -0.02   0.03    -0.04   0.04  -0.05
  47   1    -0.01   0.03   0.08    -0.04  -0.01   0.06     0.07   0.02  -0.10
  48   1    -0.07   0.02   0.16     0.02  -0.01  -0.01    -0.04   0.01   0.03
  49   1    -0.13   0.03   0.03     0.02   0.03   0.02    -0.06  -0.05  -0.03
  50   1     0.06  -0.10  -0.09    -0.01  -0.01   0.01     0.04  -0.03  -0.06
  51   1    -0.11  -0.11  -0.04     0.01  -0.02   0.03    -0.06   0.01  -0.08
  52   1    -0.06   0.20  -0.13    -0.02   0.01  -0.02     0.01   0.05  -0.02
  53   1    -0.08   0.17   0.16    -0.03   0.01   0.01     0.03   0.05   0.04
  54   1     0.01  -0.04  -0.04    -0.01  -0.01  -0.03     0.02  -0.01   0.03
  55   1     0.10  -0.03   0.03     0.01   0.02  -0.03     0.03  -0.05   0.06
  56   6    -0.08  -0.03  -0.03     0.31  -0.10   0.13    -0.13  -0.00  -0.06
  57   8     0.00   0.01   0.05     0.03   0.00  -0.24    -0.00   0.01   0.09
  58   6     0.02   0.01   0.04    -0.28   0.26   0.04     0.00   0.05   0.03
  59   8     0.01   0.01  -0.03    -0.09  -0.23   0.08     0.02  -0.01  -0.02
                     25                     26                     27
                        a                      a                      a 
 Frequencies --   266.0535               294.9741               296.1604
 Red. masses --    12.2658                 7.9848                 7.6165
 Frc consts  --     0.0000                 0.0000                 0.0000
 IR Inten    --     1.8881                 0.4782                 0.2057
 Raman Activ --     0.0000                 0.0000                 0.0000
 Depolar     --     0.0000                 0.0000                 0.0000
 Atom AN      X      Y      Z        X      Y      Z        X      Y      Z
   1  28     0.07   0.17   0.07    -0.08  -0.03  -0.03    -0.01   0.04   0.01
   2   7    -0.20  -0.18  -0.01     0.02   0.00   0.00     0.06  -0.02  -0.03
   3   6    -0.12   0.00  -0.00     0.03   0.00  -0.01     0.15   0.04  -0.17
   4   7     0.09   0.23  -0.01    -0.01  -0.03  -0.01    -0.00  -0.12  -0.18
   5   6    -0.01   0.10   0.06    -0.02  -0.02   0.01    -0.11  -0.11   0.02
   6   6     0.11  -0.03  -0.09    -0.02  -0.01   0.03    -0.09  -0.12   0.21
   7   6     0.10  -0.05  -0.09     0.01   0.03   0.00     0.08   0.27  -0.05
   8   6     0.01  -0.15   0.06     0.01   0.03   0.03     0.01   0.17   0.25
   9   6    -0.11  -0.00   0.00     0.03   0.00  -0.01     0.14  -0.04  -0.13
  10   6    -0.02  -0.05   0.08    -0.01  -0.00  -0.02    -0.17  -0.15  -0.16
  11   6     0.12   0.04   0.05    -0.01   0.02  -0.00     0.03   0.21   0.04
  12   6    -0.01  -0.14  -0.09    -0.00   0.01   0.01     0.00  -0.20   0.06
  13   1    -0.05  -0.01   0.05     0.00  -0.00   0.00     0.01  -0.02   0.01
  14   1    -0.01   0.09   0.03    -0.01  -0.01  -0.00    -0.08  -0.05  -0.01
  15   1     0.02  -0.02  -0.03    -0.01  -0.00   0.01    -0.05  -0.06   0.14
  16   1     0.03  -0.02  -0.03    -0.00  -0.01   0.00     0.05  -0.10   0.02
  17   1     0.07  -0.02  -0.03     0.01   0.02   0.01     0.13   0.16   0.04
  18   1     0.00   0.02  -0.04     0.00   0.01  -0.02     0.02   0.10  -0.16
  19   1    -0.01  -0.01   0.04     0.00   0.02   0.02    -0.02   0.17   0.15
  20   1     0.02  -0.07   0.04    -0.00  -0.00   0.02    -0.02  -0.07   0.17
  21   1    -0.01   0.04  -0.02     0.00  -0.01  -0.00     0.01  -0.06  -0.02
  22   1    -0.08   0.00   0.01     0.01  -0.00  -0.01     0.06  -0.04  -0.07
  23   1    -0.01  -0.09   0.01    -0.00  -0.00  -0.01    -0.06  -0.14  -0.07
  24   1    -0.07   0.00   0.07    -0.01   0.00  -0.01    -0.16  -0.00  -0.04
  25   1     0.04   0.02   0.09    -0.00   0.00   0.00     0.02   0.07   0.17
  26   1     0.08   0.06  -0.02    -0.01   0.01  -0.00     0.04   0.20  -0.05
  27   1    -0.01  -0.05  -0.03    -0.00   0.00   0.01    -0.08  -0.14   0.04
  28   1     0.02  -0.05  -0.06    -0.00   0.00   0.00     0.11  -0.11   0.04
  29   7     0.04  -0.22  -0.13     0.05   0.04   0.06    -0.01  -0.00  -0.00
  30   6    -0.08  -0.06  -0.02     0.09   0.05   0.21    -0.01  -0.01  -0.02
  31   7    -0.14   0.18   0.17     0.13  -0.14   0.10    -0.02   0.01  -0.01
  32   6    -0.13   0.03  -0.05     0.01  -0.11  -0.09    -0.01   0.01   0.01
  33   6     0.10  -0.02   0.07    -0.01  -0.02  -0.25    -0.00   0.00   0.02
  34   6     0.10   0.01   0.12    -0.14   0.19   0.18     0.01  -0.01  -0.02
  35   6     0.07   0.00  -0.14    -0.17   0.21  -0.14     0.02  -0.02   0.01
  36   6    -0.08  -0.05  -0.03     0.17   0.03   0.11    -0.01  -0.00  -0.01
  37   6    -0.06  -0.01  -0.11     0.03  -0.27   0.01    -0.00   0.02  -0.00
  38   6    -0.02   0.12   0.02    -0.13   0.13   0.08     0.01  -0.01  -0.01
  39   6     0.08  -0.11   0.01     0.12  -0.07  -0.12    -0.01   0.01   0.01
  40   1    -0.04  -0.03  -0.09     0.02   0.01  -0.01    -0.00  -0.00  -0.00
  41   1    -0.11   0.03  -0.01    -0.01  -0.09  -0.03    -0.00   0.01   0.00
  42   1     0.03  -0.02   0.01    -0.01  -0.00  -0.16     0.00  -0.00   0.02
  43   1     0.04  -0.02   0.02     0.10   0.01  -0.05    -0.01  -0.00   0.00
  44   1     0.06   0.05   0.05    -0.05   0.20   0.07     0.01  -0.02  -0.01
  45   1    -0.00  -0.02   0.07    -0.03  -0.01   0.19     0.00   0.00  -0.02
  46   1    -0.04   0.03  -0.05    -0.17   0.14  -0.06     0.02  -0.01   0.01
  47   1     0.06   0.01  -0.09    -0.00   0.03  -0.18    -0.00  -0.00   0.02
  48   1    -0.04   0.01   0.03     0.06  -0.03  -0.02    -0.00   0.00  -0.00
  49   1    -0.06  -0.05  -0.03     0.10  -0.01   0.06    -0.01   0.00  -0.00
  50   1     0.05  -0.06  -0.07     0.07  -0.14  -0.03    -0.01   0.01   0.00
  51   1    -0.09  -0.01  -0.09    -0.09  -0.13  -0.01     0.01   0.01  -0.00
  52   1    -0.02   0.08  -0.05    -0.07   0.13  -0.09     0.01  -0.01   0.01
  53   1    -0.00   0.08   0.07    -0.10   0.09   0.14     0.01  -0.01  -0.01
  54   1     0.02  -0.03  -0.00     0.03  -0.12  -0.10    -0.00   0.01   0.01
  55   1     0.05  -0.04   0.04     0.13   0.04  -0.06    -0.01  -0.00   0.01
  56   6     0.18  -0.07   0.09     0.01   0.01   0.00    -0.03   0.02   0.00
  57   8     0.02   0.00  -0.13    -0.00  -0.00  -0.00    -0.02   0.00   0.03
  58   6    -0.15   0.20   0.06     0.03  -0.06  -0.01    -0.01   0.01   0.00
  59   8    -0.03  -0.13   0.02    -0.00   0.03   0.00     0.00  -0.00   0.00
                     28                     29                     30
                        a                      a                      a 
 Frequencies --   318.8488               344.3219               348.4005
 Red. masses --    20.0734                 9.7637                11.0610
 Frc consts  --     0.0000                 0.0000                 0.0000
 IR Inten    --     5.9163                 4.3112                 3.6586
 Raman Activ --     0.0000                 0.0000                 0.0000
 Depolar     --     0.0000                 0.0000                 0.0000
 Atom AN      X      Y      Z        X      Y      Z        X      Y      Z
   1  28    -0.39   0.05   0.14     0.06  -0.05  -0.06    -0.12  -0.04   0.06
   2   7    -0.01  -0.04   0.02     0.08   0.11  -0.02     0.17   0.22  -0.02
   3   6     0.01  -0.02  -0.01     0.03   0.06   0.03     0.09   0.15   0.08
   4   7    -0.05  -0.09   0.00     0.06   0.11   0.00     0.13   0.26  -0.01
   5   6    -0.03  -0.00   0.04     0.02  -0.05  -0.08     0.03  -0.14  -0.18
   6   6    -0.05   0.03   0.05    -0.01  -0.05  -0.06    -0.05  -0.12  -0.14
   7   6     0.05   0.04   0.05    -0.12  -0.05  -0.07    -0.29  -0.12  -0.17
   8   6     0.06   0.05   0.02    -0.09   0.01  -0.01    -0.19   0.07  -0.01
   9   6     0.07   0.01  -0.03    -0.07   0.02   0.06    -0.13   0.08   0.14
  10   6     0.02   0.03  -0.04    -0.02  -0.02   0.05    -0.03  -0.04   0.09
  11   6    -0.05  -0.02  -0.04     0.05   0.01   0.03     0.11   0.01   0.05
  12   6    -0.03   0.09  -0.02     0.07  -0.07   0.06     0.17  -0.14   0.14
  13   1     0.01  -0.00   0.02    -0.01  -0.00  -0.05    -0.02  -0.01  -0.11
  14   1    -0.02   0.00   0.01     0.02  -0.04  -0.03     0.03  -0.09  -0.06
  15   1    -0.01   0.01  -0.00     0.00  -0.00   0.01    -0.00  -0.00   0.01
  16   1    -0.03   0.01   0.02     0.01  -0.02  -0.02     0.00  -0.05  -0.05
  17   1     0.02   0.02   0.02    -0.05  -0.03  -0.03    -0.13  -0.06  -0.06
  18   1     0.02   0.01  -0.00    -0.03  -0.02   0.00    -0.07  -0.06   0.00
  19   1     0.03   0.02   0.01    -0.04   0.00  -0.00    -0.08   0.03   0.00
  20   1     0.00   0.01   0.01     0.00   0.00  -0.00     0.01   0.01   0.00
  21   1     0.02  -0.01  -0.00    -0.03  -0.00   0.02    -0.06  -0.00   0.04
  22   1     0.03   0.00  -0.01    -0.01   0.00   0.01    -0.01   0.01   0.03
  23   1     0.01   0.05  -0.00    -0.01  -0.05   0.01    -0.01  -0.10   0.01
  24   1     0.04  -0.00  -0.04    -0.04   0.00   0.04    -0.08   0.01   0.09
  25   1    -0.01  -0.01  -0.05     0.02   0.00   0.02     0.03   0.00   0.04
  26   1    -0.03  -0.03   0.00     0.02   0.01   0.00     0.03   0.02   0.01
  27   1     0.02   0.07   0.00    -0.02  -0.07   0.01    -0.04  -0.14   0.03
  28   1    -0.05   0.04  -0.03     0.07  -0.04   0.06     0.15  -0.08   0.12
  29   7    -0.03   0.00   0.05    -0.19   0.25   0.32     0.03  -0.11  -0.07
  30   6    -0.05  -0.01  -0.04    -0.12   0.10   0.05     0.02  -0.07  -0.02
  31   7    -0.07   0.09   0.03    -0.13   0.14   0.10     0.03  -0.09  -0.07
  32   6    -0.00   0.03   0.05     0.07  -0.06   0.13    -0.09   0.06  -0.05
  33   6     0.05   0.02   0.06     0.07  -0.06   0.06    -0.05   0.07  -0.02
  34   6     0.03  -0.07  -0.01    -0.02  -0.23  -0.01     0.03   0.16  -0.01
  35   6     0.04  -0.11  -0.01    -0.03  -0.19   0.02     0.08   0.05   0.00
  36   6    -0.03  -0.05  -0.08    -0.01  -0.05  -0.17     0.07   0.00   0.04
  37   6    -0.04   0.01  -0.08    -0.01  -0.01  -0.15    -0.01  -0.01   0.04
  38   6    -0.02   0.07  -0.02     0.06   0.15  -0.01    -0.04  -0.05   0.01
  39   6     0.06  -0.04  -0.05     0.23   0.05  -0.14    -0.08  -0.05   0.05
  40   1    -0.01  -0.01   0.01    -0.00  -0.05   0.09    -0.01   0.03  -0.04
  41   1     0.01   0.02   0.01     0.08  -0.03   0.03    -0.05   0.03  -0.01
  42   1     0.01   0.01   0.01     0.01   0.00  -0.01     0.00  -0.00   0.01
  43   1     0.02   0.01   0.02     0.04   0.00   0.02    -0.03   0.02  -0.01
  44   1     0.01  -0.04  -0.00    -0.01  -0.10  -0.01     0.01   0.07   0.00
  45   1    -0.01  -0.01  -0.02    -0.01  -0.05  -0.04    -0.00   0.03   0.02
  46   1     0.03  -0.06  -0.00     0.01  -0.11   0.00     0.04   0.02   0.01
  47   1     0.01  -0.02   0.03    -0.01  -0.03   0.06     0.00  -0.01   0.00
  48   1    -0.01  -0.00  -0.02     0.01  -0.01  -0.11     0.02   0.02   0.02
  49   1    -0.01  -0.02  -0.02     0.07  -0.02  -0.01     0.01  -0.00   0.01
  50   1     0.01  -0.02  -0.04     0.06  -0.05  -0.09    -0.03   0.02   0.03
  51   1    -0.05  -0.00  -0.05    -0.08  -0.01  -0.10     0.02  -0.00   0.04
  52   1    -0.02   0.04  -0.04     0.00   0.08  -0.05    -0.01  -0.02   0.01
  53   1    -0.00   0.04   0.02     0.00   0.07   0.04    -0.01  -0.02  -0.00
  54   1     0.03  -0.06  -0.04     0.11  -0.18  -0.11    -0.03   0.04   0.04
  55   1     0.06   0.02  -0.04     0.20   0.15  -0.15    -0.06  -0.05   0.05
  56   6     0.48  -0.04   0.23    -0.11   0.02  -0.05     0.14  -0.01   0.07
  57   8     0.02  -0.04  -0.30    -0.01   0.01   0.07     0.00  -0.01  -0.08
  58   6     0.32  -0.31   0.00    -0.03   0.03  -0.02     0.14  -0.11   0.01
  59   8     0.08   0.23  -0.07    -0.00  -0.02   0.01     0.05   0.09  -0.04
                     31                     32                     33
                        a                      a                      a 
 Frequencies --   356.7384               366.4993               384.5509
 Red. masses --     9.8691                 8.6585                 9.0009
 Frc consts  --     0.0000                 0.0000                 0.0000
 IR Inten    --     1.2658                 5.0881                 1.2965
 Raman Activ --     0.0000                 0.0000                 0.0000
 Depolar     --     0.0000                 0.0000                 0.0000
 Atom AN      X      Y      Z        X      Y      Z        X      Y      Z
   1  28    -0.05   0.01   0.03    -0.03  -0.08   0.02    -0.02   0.00   0.02
   2   7     0.03   0.03   0.00     0.00   0.32  -0.15     0.00  -0.01   0.02
   3   6     0.03   0.03   0.01    -0.10   0.12  -0.05     0.01  -0.00   0.01
   4   7     0.04   0.05  -0.01    -0.15   0.09  -0.02     0.01   0.02  -0.02
   5   6     0.01  -0.04  -0.04    -0.16   0.24   0.11    -0.02   0.00   0.02
   6   6    -0.01  -0.03  -0.03    -0.04   0.16   0.02    -0.03   0.01  -0.00
   7   6    -0.07  -0.02  -0.04     0.14  -0.02   0.17    -0.00  -0.00   0.01
   8   6    -0.04   0.03   0.01     0.08  -0.19  -0.20     0.01   0.01  -0.01
   9   6    -0.03   0.03   0.02     0.15  -0.32   0.04     0.02  -0.01   0.01
  10   6     0.01  -0.01   0.01    -0.08  -0.06   0.02    -0.00  -0.00  -0.01
  11   6     0.03  -0.00   0.01     0.07   0.05   0.00    -0.00  -0.00  -0.01
  12   6     0.04  -0.02   0.03     0.06  -0.17   0.02     0.01   0.00   0.01
  13   1    -0.00  -0.00  -0.03    -0.05   0.04   0.08    -0.01  -0.00   0.01
  14   1     0.01  -0.03  -0.02    -0.05   0.11   0.04    -0.01   0.01   0.01
  15   1    -0.00  -0.00   0.01    -0.02   0.02  -0.09    -0.00   0.01  -0.01
  16   1     0.00  -0.02  -0.01    -0.07   0.10   0.04    -0.02   0.01   0.00
  17   1    -0.03  -0.01  -0.01     0.02  -0.02   0.04    -0.00  -0.00   0.00
  18   1    -0.01  -0.01  -0.00     0.03   0.00   0.07     0.00  -0.01   0.00
  19   1    -0.02   0.02   0.01     0.03  -0.19  -0.14     0.00  -0.01  -0.01
  20   1     0.00  -0.00   0.01    -0.02   0.07  -0.17     0.00   0.01  -0.01
  21   1    -0.01   0.00   0.00     0.06  -0.15   0.16     0.00  -0.01   0.01
  22   1    -0.00   0.01   0.01     0.13  -0.17  -0.09     0.01  -0.00   0.00
  23   1     0.00  -0.02  -0.00    -0.01  -0.08   0.02    -0.00  -0.01  -0.00
  24   1    -0.01  -0.00   0.02    -0.07  -0.00   0.03    -0.00   0.00   0.00
  25   1     0.01   0.00   0.01     0.02   0.02   0.06     0.00  -0.00  -0.01
  26   1     0.01   0.01   0.00     0.04   0.06  -0.02    -0.01  -0.00  -0.00
  27   1    -0.00  -0.02   0.01    -0.09  -0.19  -0.02     0.00   0.00   0.00
  28   1     0.02  -0.01   0.02     0.15  -0.10   0.11     0.00   0.00  -0.00
  29   7     0.20   0.05  -0.22     0.01   0.00  -0.01     0.07   0.07  -0.20
  30   6     0.12   0.15  -0.05     0.01   0.01  -0.00     0.08   0.08  -0.01
  31   7     0.09   0.18   0.14     0.01   0.00  -0.00    -0.05   0.10   0.38
  32   6     0.29  -0.15   0.01     0.02  -0.00   0.00    -0.20  -0.14  -0.22
  33   6     0.09  -0.20  -0.02     0.01  -0.00  -0.00    -0.30  -0.27  -0.00
  34   6    -0.10  -0.33   0.09    -0.01  -0.01   0.01    -0.03  -0.04  -0.13
  35   6    -0.31   0.08  -0.06    -0.02   0.01  -0.01    -0.01   0.04   0.15
  36   6    -0.32   0.06   0.06    -0.02   0.00   0.00     0.23   0.13  -0.04
  37   6     0.03   0.06   0.04    -0.00  -0.00   0.00     0.11  -0.05   0.08
  38   6     0.03  -0.02  -0.02    -0.00  -0.01   0.00     0.07   0.03   0.05
  39   6    -0.03   0.14  -0.01    -0.01   0.00   0.00     0.09   0.16  -0.06
  40   1     0.07  -0.06   0.05     0.00  -0.00   0.01    -0.03  -0.02  -0.17
  41   1     0.11  -0.08  -0.00     0.01  -0.00   0.00    -0.18  -0.06  -0.05
  42   1    -0.02   0.01  -0.03     0.00   0.00  -0.01    -0.07  -0.08   0.19
  43   1     0.07  -0.08   0.00     0.01  -0.00  -0.00    -0.24  -0.18  -0.04
  44   1    -0.03  -0.11   0.02    -0.00   0.00   0.00    -0.02  -0.08  -0.05
  45   1     0.02  -0.09   0.02    -0.00  -0.00   0.01     0.06   0.01  -0.08
  46   1    -0.20   0.10  -0.03    -0.01   0.01  -0.00     0.08  -0.04   0.05
  47   1     0.01   0.07  -0.13     0.00   0.00  -0.01    -0.06  -0.00   0.12
  48   1    -0.10  -0.05   0.12    -0.01  -0.00   0.01     0.09   0.02  -0.10
  49   1    -0.18   0.05  -0.03    -0.01   0.00  -0.00     0.13   0.09   0.03
  50   1     0.00   0.00   0.03    -0.00  -0.00   0.00     0.07  -0.05  -0.00
  51   1     0.01   0.03  -0.01     0.00   0.00   0.00    -0.01  -0.01  -0.03
  52   1     0.03  -0.03   0.04    -0.00  -0.00   0.00     0.04   0.01   0.02
  53   1     0.01  -0.04  -0.05    -0.00  -0.00  -0.00    -0.03  -0.02   0.00
  54   1    -0.04   0.13   0.02    -0.00   0.01   0.00     0.02   0.05  -0.03
  55   1    -0.07  -0.02   0.04    -0.01  -0.00   0.00     0.03   0.03  -0.00
  56   6     0.06   0.01   0.02     0.01   0.06  -0.01     0.03  -0.01   0.01
  57   8     0.00  -0.01  -0.04    -0.01  -0.01   0.00     0.00  -0.00  -0.02
  58   6     0.01  -0.05  -0.01     0.06  -0.04   0.01     0.00  -0.02  -0.01
  59   8    -0.01   0.01   0.01     0.02   0.05  -0.03    -0.00   0.01   0.00
                     34                     35                     36
                        a                      a                      a 
 Frequencies --   391.8574               425.9165               428.1636
 Red. masses --    10.2899                18.7380                 9.8345
 Frc consts  --     0.0000                 0.0000                 0.0000
 IR Inten    --     1.1867                19.8892                 0.9983
 Raman Activ --     0.0000                 0.0000                 0.0000
 Depolar     --     0.0000                 0.0000                 0.0000
 Atom AN      X      Y      Z        X      Y      Z        X      Y      Z
   1  28    -0.03  -0.08   0.01    -0.09  -0.31  -0.21     0.00  -0.10  -0.09
   2   7     0.01   0.24  -0.27    -0.01  -0.04   0.03    -0.23  -0.13   0.04
   3   6    -0.12   0.06  -0.04     0.01  -0.03   0.00    -0.14   0.11   0.10
   4   7    -0.20  -0.26   0.28     0.03   0.00  -0.02    -0.21   0.07   0.08
   5   6     0.24   0.07  -0.14    -0.00  -0.01   0.02    -0.06  -0.03  -0.27
   6   6     0.37  -0.04   0.06    -0.01   0.00  -0.00    -0.09  -0.04   0.05
   7   6     0.11   0.05  -0.05    -0.01  -0.00   0.00     0.04   0.04   0.02
   8   6    -0.05  -0.15   0.04     0.00   0.01   0.00     0.11   0.16   0.06
   9   6    -0.19   0.05  -0.04     0.00   0.00  -0.01     0.17   0.01   0.11
  10   6    -0.11   0.07   0.15     0.01  -0.00  -0.02     0.03   0.01   0.09
  11   6    -0.07   0.06   0.05    -0.01  -0.00   0.01     0.14  -0.10  -0.10
  12   6    -0.14  -0.05  -0.09    -0.01   0.01   0.01     0.10  -0.05  -0.14
  13   1     0.07   0.07  -0.13     0.00  -0.01   0.02     0.00   0.10  -0.23
  14   1     0.16  -0.06  -0.04    -0.01   0.01   0.01     0.04  -0.19  -0.12
  15   1     0.05  -0.08   0.16     0.00   0.01  -0.01    -0.05  -0.05   0.05
  16   1     0.27  -0.05   0.00    -0.02   0.00  -0.00     0.03  -0.01   0.02
  17   1     0.08   0.03  -0.00    -0.00  -0.00  -0.00     0.01   0.03   0.02
  18   1    -0.02   0.08  -0.03     0.00  -0.00   0.00     0.04  -0.02  -0.03
  19   1    -0.02  -0.01   0.04     0.00   0.00   0.00     0.03   0.06   0.03
  20   1    -0.00  -0.07   0.04    -0.00  -0.00   0.00     0.04   0.03   0.03
  21   1    -0.02   0.07  -0.03    -0.00   0.00  -0.01     0.05  -0.07   0.16
  22   1    -0.12  -0.00  -0.02    -0.00   0.01   0.01     0.16  -0.05  -0.05
  23   1    -0.02   0.06   0.06     0.00   0.00  -0.01     0.03   0.01   0.07
  24   1    -0.01   0.02  -0.01     0.01  -0.00  -0.00     0.03  -0.01   0.03
  25   1    -0.04   0.03   0.05    -0.00  -0.00   0.00     0.05  -0.04  -0.07
  26   1     0.05   0.02  -0.00    -0.01   0.00   0.00     0.04  -0.07  -0.01
  27   1    -0.08  -0.07  -0.04     0.01   0.02   0.00     0.05  -0.00  -0.06
  28   1     0.02  -0.03   0.04    -0.02   0.01  -0.01     0.01  -0.01  -0.08
  29   7     0.01   0.00  -0.02     0.00  -0.12  -0.09     0.02   0.11   0.08
  30   6     0.01   0.01  -0.00    -0.10   0.00  -0.08     0.12  -0.00   0.07
  31   7     0.00   0.01   0.03    -0.12  -0.04  -0.05     0.13   0.06   0.06
  32   6    -0.01  -0.01  -0.02     0.02  -0.11   0.11    -0.01   0.11  -0.12
  33   6    -0.02  -0.02  -0.00    -0.03  -0.05  -0.05     0.02   0.04   0.05
  34   6    -0.00  -0.00  -0.01    -0.01   0.03   0.01     0.00  -0.04  -0.01
  35   6    -0.00   0.01   0.01    -0.04   0.10   0.03     0.03  -0.11  -0.03
  36   6     0.01   0.01  -0.00     0.03   0.12  -0.05    -0.03  -0.12   0.04
  37   6     0.01  -0.01   0.01    -0.04   0.03  -0.03     0.02  -0.03   0.03
  38   6     0.00  -0.00   0.00     0.09  -0.01   0.07    -0.11   0.01  -0.07
  39   6     0.00   0.01  -0.00     0.09  -0.01   0.07    -0.10   0.00  -0.07
  40   1    -0.00  -0.00  -0.01    -0.02  -0.03   0.13     0.02   0.03  -0.14
  41   1    -0.01  -0.01  -0.00     0.11  -0.07   0.02    -0.11   0.07  -0.02
  42   1    -0.00  -0.01   0.01    -0.01  -0.03  -0.04     0.00   0.03   0.05
  43   1    -0.02  -0.01  -0.00     0.00   0.01  -0.01    -0.01  -0.02   0.01
  44   1    -0.00  -0.00  -0.00    -0.01   0.02   0.00     0.01  -0.02  -0.00
  45   1     0.00   0.00  -0.00     0.03   0.00   0.02    -0.03  -0.01  -0.02
  46   1     0.00  -0.00   0.00    -0.01   0.02   0.01     0.01  -0.03  -0.01
  47   1    -0.00   0.00   0.01    -0.01   0.03   0.01     0.00  -0.04  -0.01
  48   1     0.01   0.00  -0.00     0.02   0.06  -0.09    -0.02  -0.05   0.08
  49   1     0.01   0.01   0.00     0.08   0.05   0.02    -0.07  -0.05  -0.02
  50   1     0.00  -0.00   0.00    -0.01   0.03  -0.03     0.00  -0.04   0.03
  51   1    -0.00  -0.00  -0.00    -0.00   0.01  -0.01    -0.00  -0.01   0.01
  52   1     0.00  -0.00   0.00     0.04  -0.02   0.04    -0.04   0.02  -0.05
  53   1    -0.00  -0.00  -0.00     0.05  -0.01  -0.01    -0.05   0.01   0.01
  54   1    -0.00   0.01   0.00     0.02   0.01   0.02    -0.03  -0.00  -0.02
  55   1    -0.00  -0.00   0.00     0.03  -0.02   0.04    -0.04   0.01  -0.04
  56   6     0.03   0.03   0.04     0.15   0.33   0.32     0.03   0.17   0.07
  57   8    -0.02  -0.01   0.00    -0.21  -0.06   0.16    -0.07  -0.03   0.07
  58   6     0.06  -0.01  -0.01     0.10   0.44   0.19     0.00   0.14   0.12
  59   8     0.04   0.05  -0.02     0.21   0.05  -0.18     0.02  -0.01  -0.05
                     37                     38                     39
                        a                      a                      a 
 Frequencies --   429.2254               466.9473               469.1963
 Red. masses --    10.9465                 8.8888                 8.3001
 Frc consts  --     0.0000                 0.0000                 0.0000
 IR Inten    --     3.1441                 1.6141                 2.2982
 Raman Activ --     0.0000                 0.0000                 0.0000
 Depolar     --     0.0000                 0.0000                 0.0000
 Atom AN      X      Y      Z        X      Y      Z        X      Y      Z
   1  28    -0.04  -0.15  -0.11    -0.00   0.00  -0.01    -0.01   0.00  -0.03
   2   7     0.14   0.07  -0.01     0.15  -0.06   0.02     0.07  -0.02   0.02
   3   6     0.11  -0.08  -0.08    -0.04  -0.20   0.27    -0.02  -0.10   0.12
   4   7     0.16  -0.05  -0.07    -0.09  -0.04  -0.04    -0.04  -0.03  -0.03
   5   6     0.04   0.01   0.19    -0.05   0.05  -0.05    -0.02   0.03  -0.02
   6   6     0.06   0.03  -0.04    -0.01   0.04   0.05     0.01   0.02   0.02
   7   6    -0.04  -0.03  -0.01     0.12   0.06   0.06     0.05   0.03   0.02
   8   6    -0.08  -0.10  -0.04     0.04  -0.07   0.02     0.01  -0.03   0.01
   9   6    -0.11  -0.00  -0.08    -0.10   0.12   0.24    -0.06   0.06   0.10
  10   6    -0.00  -0.01  -0.07    -0.19   0.04  -0.14    -0.08   0.01  -0.08
  11   6    -0.10   0.06   0.08    -0.01   0.07  -0.36     0.00   0.03  -0.16
  12   6    -0.07   0.05   0.10     0.22  -0.07  -0.02     0.11  -0.02   0.01
  13   1     0.00  -0.07   0.16     0.01   0.01   0.00     0.00   0.00   0.01
  14   1    -0.04   0.13   0.09    -0.03   0.03  -0.01    -0.02   0.02  -0.00
  15   1     0.03   0.04  -0.04    -0.01  -0.01  -0.00    -0.01  -0.01   0.01
  16   1    -0.03   0.00  -0.01     0.01   0.02   0.02     0.01   0.01   0.01
  17   1    -0.01  -0.02  -0.01     0.10   0.05   0.03     0.04   0.02   0.01
  18   1    -0.03   0.01   0.02     0.01   0.05  -0.05     0.00   0.02  -0.02
  19   1    -0.02  -0.03  -0.01    -0.00  -0.10  -0.05    -0.00  -0.04  -0.02
  20   1    -0.03  -0.02  -0.02     0.03   0.06  -0.06     0.01   0.02  -0.02
  21   1    -0.03   0.04  -0.12    -0.00   0.14  -0.07    -0.01   0.07  -0.04
  22   1    -0.11   0.04   0.03    -0.12   0.12   0.18    -0.07   0.07   0.09
  23   1    -0.02  -0.01  -0.06    -0.04  -0.09  -0.01    -0.01  -0.04  -0.01
  24   1    -0.01   0.00  -0.02    -0.14   0.04  -0.02    -0.06   0.02  -0.02
  25   1    -0.03   0.02   0.05    -0.00   0.01  -0.20     0.00   0.00  -0.09
  26   1    -0.03   0.05   0.01    -0.07  -0.06  -0.06    -0.04  -0.02  -0.02
  27   1    -0.03   0.01   0.04    -0.03  -0.08   0.06    -0.01  -0.03   0.03
  28   1    -0.02   0.02   0.05     0.15  -0.07   0.01     0.07  -0.03   0.01
  29   7     0.02   0.17   0.11    -0.04  -0.06  -0.01     0.12   0.15   0.03
  30   6     0.17  -0.00   0.11    -0.04  -0.00   0.13     0.12   0.02  -0.30
  31   7     0.20   0.09   0.09     0.00   0.05  -0.00     0.02  -0.10   0.00
  32   6    -0.01   0.17  -0.18     0.04   0.00  -0.02    -0.07   0.01   0.02
  33   6     0.04   0.06   0.08     0.01  -0.02   0.00    -0.02   0.06  -0.00
  34   6     0.00  -0.07  -0.01    -0.01  -0.06   0.00     0.02   0.12   0.01
  35   6     0.04  -0.16  -0.05    -0.04   0.01   0.02     0.08  -0.02  -0.05
  36   6    -0.04  -0.18   0.07     0.08  -0.03   0.07    -0.23   0.06  -0.16
  37   6     0.04  -0.04   0.04     0.05   0.09  -0.04    -0.12  -0.21   0.10
  38   6    -0.16   0.01  -0.12    -0.01   0.06  -0.14    -0.00  -0.16   0.35
  39   6    -0.15   0.00  -0.10    -0.08  -0.06  -0.00     0.18   0.13   0.01
  40   1     0.03   0.05  -0.21     0.00  -0.01   0.01    -0.00   0.02  -0.05
  41   1    -0.16   0.10  -0.03     0.03  -0.00  -0.01    -0.08   0.02   0.01
  42   1     0.00   0.04   0.06    -0.00   0.01   0.01     0.01  -0.01  -0.01
  43   1    -0.02  -0.03   0.01     0.00  -0.02   0.00    -0.00   0.04   0.00
  44   1     0.02  -0.04  -0.00    -0.01  -0.04  -0.00     0.02   0.09   0.01
  45   1    -0.04  -0.01  -0.03     0.01  -0.01  -0.02    -0.03   0.01   0.05
  46   1     0.01  -0.04  -0.01    -0.04   0.03   0.00     0.08  -0.07  -0.01
  47   1     0.01  -0.05  -0.02     0.00  -0.01  -0.04    -0.01   0.01   0.08
  48   1    -0.03  -0.08   0.13     0.04  -0.01  -0.05    -0.10   0.01   0.14
  49   1    -0.11  -0.07  -0.03     0.09  -0.02   0.06    -0.24   0.04  -0.14
  50   1     0.00  -0.05   0.05    -0.02   0.03   0.02     0.04  -0.09  -0.05
  51   1     0.00  -0.01   0.01     0.05   0.04  -0.00    -0.13  -0.10   0.01
  52   1    -0.07   0.03  -0.07    -0.02   0.04  -0.07     0.03  -0.10   0.18
  53   1    -0.07   0.02   0.01     0.00   0.05  -0.00    -0.00  -0.12  -0.00
  54   1    -0.04  -0.00  -0.03    -0.01   0.02   0.04     0.02  -0.05  -0.11
  55   1    -0.06   0.02  -0.06    -0.06  -0.04   0.01     0.15   0.10  -0.02
  56   6     0.05   0.14   0.14    -0.02  -0.15   0.14     0.01   0.04  -0.01
  57   8    -0.09  -0.02   0.08    -0.06   0.07   0.05    -0.00  -0.01   0.00
  58   6     0.03   0.16   0.06    -0.00   0.06  -0.17    -0.01  -0.01   0.04
  59   8     0.07   0.02  -0.06     0.08   0.04   0.02    -0.03  -0.02   0.00
                     40                     41                     42
                        a                      a                      a 
 Frequencies --   479.4024               497.8492               500.2713
 Red. masses --    12.4773                10.1868                 9.6226
 Frc consts  --     0.0000                 0.0000                 0.0000
 IR Inten    --     0.3425                 1.0951                 0.9489
 Raman Activ --     0.0000                 0.0000                 0.0000
 Depolar     --     0.0000                 0.0000                 0.0000
 Atom AN      X      Y      Z        X      Y      Z        X      Y      Z
   1  28     0.04   0.06  -0.02    -0.03  -0.04   0.09    -0.03  -0.05   0.03
   2   7     0.06   0.00   0.01    -0.04   0.03   0.09    -0.12   0.10   0.26
   3   6     0.01  -0.07   0.06    -0.02  -0.02   0.01    -0.05  -0.00  -0.00
   4   7    -0.02  -0.04  -0.02    -0.08  -0.03  -0.07    -0.25  -0.10  -0.19
   5   6    -0.00   0.03   0.01    -0.05   0.10  -0.05    -0.15   0.32  -0.14
   6   6     0.04   0.01  -0.00     0.05   0.00  -0.01     0.16   0.01  -0.04
   7   6     0.01   0.00   0.00    -0.01  -0.01  -0.01    -0.06  -0.03  -0.05
   8   6    -0.00  -0.02   0.01    -0.01  -0.01   0.01    -0.04   0.00   0.02
   9   6    -0.05   0.05   0.05    -0.02   0.02  -0.00    -0.04   0.02  -0.03
  10   6    -0.05   0.00  -0.06     0.05  -0.08  -0.08     0.15  -0.22  -0.20
  11   6    -0.01   0.02  -0.10     0.05  -0.04   0.02     0.13  -0.11   0.11
  12   6     0.06  -0.01   0.01     0.07   0.02   0.08     0.17   0.09   0.22
  13   1     0.00  -0.01   0.03    -0.02   0.01   0.01    -0.05   0.03   0.04
  14   1    -0.01   0.04   0.01    -0.02   0.06  -0.01    -0.05   0.17  -0.01
  15   1     0.00  -0.01   0.01    -0.01  -0.04   0.05    -0.04  -0.13   0.16
  16   1     0.03  -0.00  -0.00     0.08  -0.01  -0.01     0.26  -0.03  -0.02
  17   1     0.01   0.00   0.00    -0.02  -0.01  -0.01    -0.07  -0.05  -0.04
  18   1    -0.00   0.01  -0.00    -0.00  -0.00   0.02    -0.01  -0.02   0.07
  19   1    -0.00  -0.02  -0.01    -0.01   0.01   0.01    -0.02   0.04   0.03
  20   1     0.01   0.01  -0.01    -0.00  -0.01   0.01    -0.00  -0.04   0.04
  21   1    -0.01   0.05  -0.04    -0.00   0.02  -0.03    -0.01   0.03  -0.05
  22   1    -0.05   0.05   0.06    -0.03   0.02   0.02    -0.04   0.03   0.02
  23   1    -0.01  -0.03  -0.01     0.02  -0.00  -0.00     0.06   0.00  -0.01
  24   1    -0.04   0.01  -0.02     0.03  -0.03  -0.03     0.10  -0.08  -0.08
  25   1    -0.00   0.00  -0.06     0.03  -0.02   0.01     0.09  -0.05   0.05
  26   1    -0.03  -0.01  -0.01    -0.02   0.01   0.01    -0.06   0.04   0.03
  27   1    -0.01  -0.02   0.02     0.03   0.00   0.01     0.08   0.02   0.01
  28   1     0.05  -0.02   0.01     0.02   0.01   0.02     0.03   0.03   0.06
  29   7    -0.00  -0.04   0.02    -0.21   0.07  -0.21     0.06  -0.03   0.08
  30   6    -0.04  -0.00   0.06    -0.03  -0.06  -0.03     0.01   0.02   0.02
  31   7    -0.02   0.05  -0.01    -0.06  -0.30   0.10     0.02   0.11  -0.03
  32   6     0.03  -0.01  -0.02    -0.30  -0.05   0.24     0.12   0.01  -0.08
  33   6    -0.01  -0.03  -0.01     0.08   0.08   0.05    -0.04  -0.04  -0.03
  34   6    -0.00  -0.01  -0.00    -0.00  -0.06   0.02     0.00   0.03  -0.01
  35   6    -0.01   0.01   0.01    -0.02  -0.02  -0.03     0.01   0.00   0.01
  36   6     0.05  -0.00   0.02    -0.04  -0.04   0.03     0.02   0.01  -0.01
  37   6    -0.01   0.05  -0.03     0.33  -0.10   0.09    -0.11   0.04  -0.04
  38   6    -0.01   0.02  -0.05     0.14   0.12  -0.14    -0.05  -0.03   0.03
  39   6    -0.03  -0.05   0.01     0.00   0.26  -0.12    -0.01  -0.09   0.04
  40   1     0.00  -0.01   0.02    -0.06  -0.01  -0.02     0.02   0.00   0.02
  41   1     0.04  -0.01  -0.01    -0.14   0.02   0.07     0.06  -0.02  -0.03
  42   1    -0.01   0.00   0.02     0.03  -0.04  -0.19    -0.01   0.01   0.07
  43   1    -0.02  -0.02  -0.01     0.17   0.16   0.06    -0.07  -0.06  -0.02
  44   1    -0.00  -0.01  -0.00     0.01  -0.07  -0.00    -0.00   0.04   0.00
  45   1     0.01  -0.00  -0.00    -0.01   0.01  -0.05     0.00  -0.00   0.03
  46   1    -0.01   0.01   0.00    -0.04   0.02  -0.01     0.02  -0.01   0.01
  47   1    -0.00   0.00  -0.01     0.02  -0.00  -0.05    -0.01  -0.00   0.02
  48   1     0.02   0.01  -0.04    -0.02  -0.02   0.06     0.01   0.00  -0.02
  49   1     0.06  -0.00   0.03    -0.07  -0.01  -0.02     0.03  -0.00   0.01
  50   1    -0.01   0.02   0.00     0.04   0.05   0.04    -0.01  -0.01  -0.01
  51   1     0.01   0.02  -0.01     0.17  -0.00   0.05    -0.05   0.01  -0.02
  52   1    -0.01   0.01  -0.03     0.08   0.09  -0.08    -0.03  -0.02   0.02
  53   1     0.01   0.02   0.00    -0.08   0.01  -0.00     0.03   0.00   0.00
  54   1    -0.01   0.00   0.02     0.03   0.08   0.03    -0.01  -0.03  -0.00
  55   1    -0.03  -0.02   0.01    -0.03   0.05  -0.02     0.00  -0.02   0.01
  56   6     0.11   0.47  -0.32     0.02   0.04  -0.08    -0.02  -0.05  -0.04
  57   8     0.13  -0.20  -0.10     0.05  -0.03  -0.05     0.03   0.01  -0.02
  58   6     0.01  -0.21   0.58     0.02   0.07   0.03     0.01   0.04  -0.06
  59   8    -0.29  -0.13  -0.05     0.04   0.01  -0.03     0.05   0.02  -0.00
                     43                     44                     45
                        a                      a                      a 
 Frequencies --   519.1113               520.4512               523.9236
 Red. masses --    11.3393                10.4417                17.2895
 Frc consts  --     0.0000                 0.0000                 0.0000
 IR Inten    --     2.2155                 5.2172                 2.3594
 Raman Activ --     0.0000                 0.0000                 0.0000
 Depolar     --     0.0000                 0.0000                 0.0000
 Atom AN      X      Y      Z        X      Y      Z        X      Y      Z
   1  28     0.13   0.10  -0.22    -0.13  -0.10   0.19     0.21   0.13  -0.31
   2   7     0.02  -0.06  -0.01    -0.02   0.05   0.02    -0.03   0.13   0.05
   3   6     0.03   0.02   0.01    -0.03  -0.02  -0.01    -0.03   0.03  -0.04
   4   7    -0.06  -0.07   0.05     0.03   0.06  -0.05    -0.01   0.07  -0.10
   5   6    -0.00   0.12   0.09    -0.01  -0.07  -0.09    -0.05  -0.05  -0.15
   6   6     0.14  -0.01  -0.08    -0.11   0.01   0.06    -0.14   0.02   0.08
   7   6    -0.12  -0.07  -0.07     0.10   0.05   0.05     0.13   0.07   0.07
   8   6    -0.01   0.13   0.02     0.01  -0.11  -0.01     0.00  -0.17  -0.02
[...]
   6   6     0.00  -0.00   0.00     0.05  -0.09   0.11     0.00   0.00  -0.00
   7   6     0.00   0.00   0.00     0.10   0.04   0.06    -0.01  -0.00  -0.00
   8   6     0.00  -0.00  -0.00     0.01  -0.05  -0.17    -0.00   0.00   0.01
   9   6    -0.00  -0.00   0.00     0.00   0.01  -0.02     0.00  -0.00   0.00
  10   6     0.00  -0.00  -0.00     0.00  -0.00  -0.00     0.00  -0.00  -0.00
  11   6     0.00   0.00  -0.00     0.00   0.00   0.00     0.01   0.01  -0.02
  12   6     0.02  -0.02   0.01     0.01  -0.01   0.00     0.18  -0.13   0.09
  13   1    -0.00   0.00   0.00    -0.04   0.09   0.07    -0.00   0.01   0.01
  14   1     0.00   0.00  -0.00     0.03   0.03  -0.10     0.00   0.00  -0.00
  15   1    -0.01   0.00  -0.00    -0.19   0.10  -0.01    -0.00   0.00  -0.00
  16   1     0.00   0.00  -0.01     0.01   0.22  -0.36    -0.00  -0.01   0.01
  17   1     0.00   0.00  -0.00     0.02   0.16  -0.23    -0.00  -0.00   0.01
  18   1    -0.00  -0.00   0.00    -0.39  -0.33  -0.00     0.02   0.02   0.00
  19   1     0.00  -0.00   0.00     0.01  -0.15   0.21    -0.00   0.01  -0.01
  20   1    -0.00   0.01   0.01    -0.01   0.33   0.39     0.00  -0.03  -0.03
  21   1     0.00  -0.00   0.00    -0.02   0.02   0.01    -0.00   0.00   0.00
  22   1    -0.00   0.00  -0.00     0.01  -0.06   0.05    -0.00   0.02  -0.01
  23   1    -0.00  -0.00   0.00    -0.00  -0.00   0.00    -0.01  -0.00   0.00
  24   1     0.00   0.00  -0.00     0.00   0.00   0.00     0.00   0.01   0.00
  25   1    -0.00  -0.01   0.00    -0.01  -0.01   0.00    -0.04  -0.08   0.01
  26   1     0.00   0.01   0.01    -0.00  -0.00  -0.01     0.02   0.03   0.07
  27   1    -0.09   0.08  -0.05    -0.03   0.03  -0.02    -0.62   0.59  -0.39
  28   1    -0.00  -0.02   0.00    -0.00  -0.01   0.00    -0.02  -0.12   0.03
  29   7    -0.00  -0.00  -0.00     0.00   0.00   0.00     0.00  -0.00  -0.00
  30   6     0.00   0.00   0.00    -0.00  -0.00  -0.00    -0.00   0.00  -0.00
  31   7    -0.00  -0.00  -0.00     0.00   0.00   0.00     0.00   0.00   0.00
  32   6    -0.01   0.01   0.00    -0.00   0.00  -0.00     0.01  -0.00  -0.00
  33   6    -0.01  -0.00  -0.00     0.00   0.00   0.00     0.01   0.01  -0.01
  34   6     0.01   0.02  -0.02     0.00   0.00  -0.00     0.00  -0.00  -0.01
  35   6     0.01   0.00  -0.02    -0.00   0.00  -0.00     0.01  -0.00  -0.01
  36   6     0.00   0.00  -0.01     0.00   0.00  -0.00    -0.01  -0.00   0.01
  37   6    -0.01   0.02   0.02    -0.00  -0.00  -0.00     0.00  -0.00  -0.00
  38   6    -0.10   0.21   0.13     0.00  -0.01  -0.00     0.01  -0.03  -0.02
  39   6    -0.02   0.01   0.03     0.00  -0.00  -0.00     0.00  -0.00  -0.00
  40   1     0.06  -0.02   0.01     0.00  -0.00   0.00    -0.03   0.01  -0.01
  41   1    -0.00   0.00  -0.02     0.00  -0.00   0.00     0.00  -0.00   0.01
  42   1     0.02   0.01  -0.00    -0.01  -0.00   0.00    -0.04  -0.02   0.00
  43   1    -0.00  -0.00   0.00     0.00   0.00  -0.00    -0.00  -0.00   0.03
  44   1    -0.02  -0.01   0.11    -0.00  -0.00   0.00    -0.00  -0.00   0.02
  45   1     0.00  -0.07  -0.04     0.00  -0.00  -0.00    -0.00   0.01   0.01
  46   1    -0.02  -0.02   0.08    -0.00  -0.00   0.00    -0.01  -0.01   0.06
  47   1    -0.02   0.02  -0.01     0.00  -0.00   0.00    -0.03   0.03  -0.02
  48   1     0.00   0.00  -0.00    -0.00  -0.00  -0.00     0.01   0.00   0.00
  49   1    -0.02  -0.00   0.03    -0.00  -0.00   0.00     0.01   0.00  -0.03
  50   1    -0.02  -0.01  -0.02     0.00   0.00   0.00     0.00   0.00   0.00
  51   1     0.03  -0.05  -0.03    -0.00   0.00   0.00    -0.00   0.01   0.00
  52   1     0.32  -0.64  -0.57    -0.01   0.02   0.01    -0.05   0.09   0.08
  53   1     0.04  -0.10   0.10    -0.00   0.00  -0.00    -0.01   0.02  -0.02
  54   1     0.05   0.02  -0.03    -0.00  -0.00   0.00    -0.01  -0.01   0.01
  55   1     0.02  -0.06  -0.04    -0.00   0.00   0.00    -0.00   0.01   0.01
  56   6    -0.00   0.00   0.00     0.00  -0.00  -0.00     0.00  -0.00  -0.00
  57   8     0.00  -0.00  -0.00    -0.00   0.00   0.00     0.00   0.00   0.00
  58   6     0.00   0.00  -0.00    -0.00  -0.00   0.00     0.00   0.00  -0.00
  59   8    -0.00  -0.00   0.00     0.00   0.00  -0.00     0.00   0.00   0.00
                    163                    164                    165
                        a                      a                      a 
 Frequencies --  2981.4353              2984.5366              2985.7716
 Red. masses --     1.6018                 1.6636                 1.8327
 Frc consts  --     0.0000                 0.0000                 0.0000
 IR Inten    --    69.1464               119.7655                63.7013
 Raman Activ --     0.0000                 0.0000                 0.0000
 Depolar     --     0.0000                 0.0000                 0.0000
 Atom AN      X      Y      Z        X      Y      Z        X      Y      Z
   1  28    -0.00  -0.00   0.00    -0.00   0.00   0.00     0.00  -0.00   0.00
   2   7    -0.00   0.00  -0.00     0.00   0.00   0.00    -0.00  -0.00   0.00
   3   6     0.00  -0.00   0.00     0.00  -0.00   0.00    -0.00   0.00  -0.00
   4   7    -0.00   0.00   0.00    -0.00   0.00  -0.00     0.00  -0.00   0.00
   5   6     0.00  -0.00   0.00     0.00  -0.00  -0.00    -0.00  -0.00   0.01
   6   6     0.00  -0.00   0.00    -0.01   0.01  -0.01     0.01  -0.04   0.05
   7   6     0.00  -0.00   0.00    -0.02  -0.01  -0.02     0.05   0.01   0.06
   8   6    -0.00   0.00  -0.00    -0.00  -0.01  -0.04     0.00   0.05   0.15
   9   6     0.00  -0.00   0.00     0.00   0.00  -0.00    -0.00  -0.01   0.02
  10   6     0.00   0.00   0.00    -0.00  -0.00  -0.00     0.01   0.01   0.00
  11   6     0.00   0.01   0.00    -0.03  -0.05  -0.01     0.08   0.16   0.03
  12   6    -0.00   0.00  -0.00     0.02  -0.02   0.01     0.00   0.02  -0.01
  13   1    -0.00   0.00   0.00    -0.00   0.00   0.00     0.00  -0.00  -0.00
  14   1     0.00   0.00  -0.00    -0.00  -0.00   0.00     0.01   0.01  -0.03
  15   1    -0.00   0.00  -0.00     0.02  -0.01   0.00    -0.03   0.01   0.00
  16   1     0.00   0.00  -0.00    -0.00  -0.02   0.03     0.00   0.12  -0.19
  17   1    -0.00   0.00  -0.00    -0.00  -0.04   0.05     0.01   0.13  -0.20
  18   1    -0.00  -0.00   0.00     0.06   0.05  -0.00    -0.19  -0.16   0.00
  19   1     0.00  -0.00   0.01     0.00  -0.04   0.06    -0.00   0.13  -0.18
  20   1    -0.00   0.00   0.00    -0.00   0.08   0.09     0.01  -0.30  -0.35
  21   1     0.00  -0.00   0.00    -0.00   0.00   0.00     0.01  -0.01  -0.00
  22   1    -0.00   0.00  -0.00     0.00  -0.01   0.01    -0.01   0.05  -0.05
  23   1    -0.00   0.00   0.00    -0.00  -0.00   0.00    -0.01   0.00   0.00
  24   1    -0.00  -0.00  -0.00     0.00   0.01   0.00    -0.01  -0.04  -0.00
  25   1    -0.02  -0.03   0.00     0.08   0.17  -0.02    -0.25  -0.54   0.06
  26   1    -0.00  -0.00  -0.01     0.02   0.02   0.07    -0.04  -0.05  -0.18
  27   1     0.01  -0.01   0.00    -0.07   0.06  -0.04     0.03  -0.02   0.02
  28   1    -0.00  -0.00   0.00     0.00  -0.01   0.00    -0.02  -0.04   0.00
  29   7    -0.00  -0.00  -0.00     0.00   0.00  -0.00     0.00   0.00  -0.00
  30   6     0.00   0.00  -0.00    -0.00  -0.00   0.00    -0.00  -0.00   0.00
  31   7    -0.00  -0.00  -0.00    -0.00  -0.00  -0.00    -0.00  -0.00  -0.00
  32   6    -0.00   0.00   0.02    -0.04   0.01   0.01    -0.02   0.01  -0.00
  33   6    -0.04  -0.03   0.12    -0.12  -0.07   0.00    -0.04  -0.02  -0.02
  34   6    -0.02  -0.12   0.07    -0.02  -0.05   0.07    -0.01  -0.02   0.01
  35   6     0.10  -0.08  -0.01    -0.07   0.01   0.12    -0.02   0.00   0.02
  36   6     0.01  -0.00   0.00    -0.03  -0.00   0.05    -0.01  -0.00   0.01
  37   6     0.00   0.00   0.00    -0.00   0.00   0.00    -0.00   0.00  -0.00
  38   6    -0.00   0.01   0.01    -0.01   0.01   0.01    -0.00   0.00   0.00
  39   6     0.00   0.00   0.00    -0.00   0.00   0.00    -0.00   0.00   0.00
  40   1     0.01  -0.01   0.01     0.16  -0.07   0.04     0.06  -0.03   0.01
  41   1    -0.01   0.01  -0.07    -0.01   0.01  -0.06    -0.00   0.00  -0.01
  42   1     0.07   0.04   0.01     0.46   0.25  -0.06     0.19   0.10  -0.03
  43   1     0.08   0.05  -0.42    -0.03  -0.02   0.07    -0.03  -0.02   0.11
  44   1     0.10   0.04  -0.45     0.07   0.04  -0.32     0.01   0.01  -0.06
  45   1    -0.01   0.39   0.21    -0.01   0.13   0.08    -0.00   0.05   0.03
  46   1    -0.04  -0.05   0.23     0.11   0.10  -0.54     0.02   0.02  -0.11
  47   1    -0.34   0.33  -0.20     0.13  -0.13   0.09     0.03  -0.03   0.02
  48   1    -0.02  -0.00  -0.01     0.01   0.00   0.01     0.00   0.00   0.00
  49   1     0.00  -0.00  -0.00     0.10   0.01  -0.18     0.02   0.00  -0.03
  50   1    -0.01  -0.00  -0.00     0.01   0.00   0.01     0.00   0.00   0.00
  51   1     0.00  -0.01  -0.00     0.00  -0.01  -0.01     0.00  -0.00  -0.00
  52   1     0.02  -0.04  -0.03     0.02  -0.05  -0.04     0.01  -0.01  -0.01
  53   1    -0.00   0.00   0.00     0.00  -0.00   0.00    -0.00   0.00  -0.00
  54   1    -0.01  -0.00   0.01     0.01   0.00  -0.00    -0.00  -0.00   0.00
  55   1     0.00  -0.01  -0.01     0.00  -0.01  -0.01     0.00  -0.00  -0.00
  56   6    -0.00   0.00   0.00    -0.00   0.00   0.00    -0.00   0.00   0.00
  57   8     0.00  -0.00  -0.00     0.00  -0.00  -0.00     0.00  -0.00  -0.00
  58   6     0.00   0.00  -0.00     0.00   0.00  -0.00     0.00   0.00  -0.00
  59   8    -0.00  -0.00   0.00    -0.00  -0.00   0.00    -0.00  -0.00   0.00
                    166                    167                    168
                        a                      a                      a 
 Frequencies --  2986.5968              2987.0232              2987.4426
 Red. masses --     1.6522                 1.7313                 1.6055
 Frc consts  --     0.0000                 0.0000                 0.0000
 IR Inten    --    63.2514                47.6156                79.9737
 Raman Activ --     0.0000                 0.0000                 0.0000
 Depolar     --     0.0000                 0.0000                 0.0000
 Atom AN      X      Y      Z        X      Y      Z        X      Y      Z
   1  28     0.00   0.00  -0.00     0.00   0.00  -0.00    -0.00  -0.00   0.00
   2   7     0.00  -0.00  -0.00     0.00   0.00  -0.00    -0.00   0.00  -0.00
   3   6    -0.00   0.00   0.00    -0.00  -0.00   0.00    -0.00  -0.00   0.00
   4   7     0.00  -0.00  -0.00     0.00   0.00   0.00     0.00   0.00  -0.00
   5   6     0.01  -0.02  -0.02    -0.01  -0.00   0.03     0.00  -0.00  -0.00
   6   6     0.12  -0.01  -0.07    -0.07  -0.05   0.12     0.01  -0.00  -0.00
   7   6     0.09   0.05   0.04    -0.00  -0.02   0.04     0.01   0.00   0.00
   8   6     0.00   0.02   0.11    -0.00   0.06   0.10     0.00   0.00   0.01
   9   6     0.00  -0.01   0.01    -0.00  -0.01   0.02     0.00  -0.00   0.00
  10   6    -0.00  -0.01  -0.00    -0.01  -0.01   0.00    -0.00  -0.01   0.00
  11   6    -0.05  -0.10  -0.02    -0.07  -0.14  -0.03    -0.03  -0.06  -0.01
  12   6     0.00  -0.01   0.00    -0.00  -0.02   0.00    -0.01  -0.00  -0.00
  13   1    -0.03   0.08   0.05     0.01  -0.03  -0.02    -0.00   0.01   0.01
  14   1    -0.00  -0.01   0.02     0.02   0.03  -0.08     0.00   0.00  -0.00
  15   1    -0.44   0.25  -0.07     0.23  -0.14   0.05    -0.03   0.02  -0.00
  16   1     0.01  -0.22   0.34     0.00   0.31  -0.50     0.00  -0.01   0.01
  17   1     0.01   0.10  -0.15     0.00   0.09  -0.14     0.00   0.01  -0.01
  18   1    -0.33  -0.28  -0.00     0.00  -0.00   0.01    -0.03  -0.02  -0.00
  19   1    -0.00   0.12  -0.17    -0.00   0.04  -0.04    -0.00   0.01  -0.01
  20   1     0.01  -0.19  -0.22     0.01  -0.26  -0.31     0.00  -0.02  -0.02
  21   1     0.00  -0.00   0.00     0.01  -0.01  -0.00     0.00  -0.00   0.00
  22   1    -0.00   0.02  -0.02    -0.01   0.05  -0.04    -0.00   0.00  -0.00
  23   1    -0.00  -0.00   0.00     0.02   0.00  -0.01     0.01  -0.00  -0.00
  24   1     0.01   0.03   0.00     0.01   0.03   0.00     0.01   0.01   0.00
  25   1     0.15   0.32  -0.04     0.22   0.46  -0.05     0.09   0.19  -0.02
  26   1     0.02   0.02   0.09     0.03   0.04   0.16     0.01   0.01   0.05
  27   1    -0.02   0.02  -0.01    -0.02   0.02  -0.01     0.01  -0.01   0.01
  28   1     0.01   0.02  -0.00     0.01   0.03  -0.00     0.01   0.02  -0.00
  29   7     0.00   0.00  -0.00     0.00   0.00  -0.00    -0.00  -0.00   0.00
  30   6    -0.00  -0.00   0.00    -0.00  -0.00   0.00     0.00   0.00  -0.00
  31   7     0.00  -0.00   0.00     0.00  -0.00   0.00    -0.00   0.00  -0.00
  32   6     0.00  -0.00   0.00     0.01  -0.00   0.00    -0.03   0.01  -0.03
  33   6     0.01   0.00   0.02     0.01   0.01   0.02    -0.07  -0.04  -0.14
  34   6    -0.00   0.00   0.01    -0.00   0.01   0.01     0.01  -0.05  -0.07
  35   6    -0.01   0.00   0.02    -0.00  -0.00   0.01     0.06  -0.02  -0.09
  36   6    -0.00  -0.00   0.01    -0.00  -0.00   0.00     0.02   0.00  -0.04
  37   6    -0.00   0.00   0.00     0.00   0.00   0.00    -0.00  -0.00  -0.00
  38   6    -0.00   0.00   0.00    -0.00   0.00   0.00     0.01  -0.02  -0.01
  39   6    -0.00  -0.00   0.00    -0.00  -0.00   0.00     0.00  -0.00  -0.00
  40   1    -0.01   0.00  -0.00    -0.02   0.01  -0.00     0.09  -0.04   0.02
  41   1    -0.00   0.00  -0.01    -0.00   0.00  -0.01     0.00  -0.01   0.07
  42   1    -0.05  -0.03   0.01    -0.07  -0.04   0.01     0.39   0.22  -0.07
  43   1     0.02   0.01  -0.09     0.02   0.01  -0.09    -0.13  -0.07   0.57
  44   1     0.01   0.00  -0.03     0.00   0.00  -0.01    -0.03  -0.02   0.13
  45   1     0.00  -0.02  -0.01     0.00  -0.02  -0.01    -0.00   0.20   0.10
  46   1     0.01   0.01  -0.07     0.01   0.00  -0.02    -0.08  -0.07   0.40
  47   1     0.02  -0.02   0.01    -0.00   0.00   0.00    -0.13   0.13  -0.09
  48   1    -0.00  -0.00   0.00    -0.00  -0.00   0.00     0.01   0.00  -0.01
  49   1     0.02   0.00  -0.03     0.01   0.00  -0.02    -0.09  -0.01   0.16
  50   1    -0.00  -0.00  -0.00    -0.00  -0.00  -0.00     0.01   0.01   0.01
  51   1     0.00  -0.00  -0.00     0.00   0.00  -0.00    -0.00   0.00   0.00
  52   1     0.00  -0.01  -0.01     0.00  -0.00  -0.00    -0.02   0.04   0.04
  53   1    -0.00   0.00   0.00     0.00  -0.00   0.00    -0.01   0.02  -0.01
  54   1     0.01   0.00  -0.00     0.01   0.00  -0.00    -0.01  -0.00   0.00
  55   1    -0.00   0.00   0.00    -0.00   0.00   0.00    -0.00   0.00   0.00
  56   6    -0.00   0.00   0.00    -0.00   0.00   0.00     0.00  -0.00  -0.00
  57   8     0.00  -0.00  -0.00     0.00  -0.00  -0.00    -0.00   0.00   0.00
  58   6    -0.00  -0.00   0.00    -0.00  -0.00   0.00     0.00   0.00   0.00
  59   8     0.00   0.00  -0.00     0.00   0.00  -0.00    -0.00  -0.00   0.00
                    169                    170                    171
                        a                      a                      a 
 Frequencies --  3000.3364              3000.8534              3003.4412
 Red. masses --     1.5870                 1.5968                 1.6624
 Frc consts  --     0.0000                 0.0000                 0.0000
 IR Inten    --    35.8076                51.8529                49.5433
 Raman Activ --     0.0000                 0.0000                 0.0000
 Depolar     --     0.0000                 0.0000                 0.0000
 Atom AN      X      Y      Z        X      Y      Z        X      Y      Z
   1  28    -0.00   0.00  -0.00     0.00  -0.00  -0.00    -0.00  -0.00  -0.00
   2   7    -0.00   0.00  -0.00     0.00   0.00   0.00    -0.00   0.00   0.00
   3   6     0.00  -0.00   0.00     0.00   0.00  -0.00     0.00  -0.00  -0.00
   4   7     0.00   0.00   0.00    -0.00   0.00   0.00    -0.00   0.00   0.00
   5   6    -0.00  -0.01   0.01     0.00   0.00  -0.00     0.00  -0.00  -0.00
   6   6    -0.00  -0.02   0.03     0.00   0.00  -0.01     0.00  -0.00  -0.00
   7   6    -0.02  -0.04   0.02     0.01   0.01  -0.00     0.00   0.00   0.00
   8   6     0.01  -0.19   0.10    -0.00   0.04  -0.02     0.00   0.00   0.00
   9   6     0.01  -0.03   0.02    -0.00   0.01  -0.00     0.00  -0.00  -0.00
  10   6    -0.00  -0.00  -0.00     0.01  -0.00  -0.01     0.00  -0.00  -0.00
  11   6    -0.01  -0.01  -0.04    -0.03  -0.01  -0.22    -0.00   0.00  -0.01
  12   6    -0.00   0.00  -0.00    -0.02   0.01  -0.02     0.00   0.00  -0.00
  13   1    -0.00   0.01   0.01    -0.00   0.00   0.00    -0.00   0.00   0.00
  14   1     0.01   0.01  -0.03    -0.00  -0.00   0.01    -0.00  -0.00   0.00
  15   1    -0.00  -0.00   0.00    -0.01   0.01  -0.00    -0.00   0.00  -0.00
  16   1     0.00   0.06  -0.09    -0.00  -0.01   0.02     0.00  -0.00   0.00
  17   1    -0.00   0.05  -0.08     0.00  -0.01   0.01     0.00   0.00  -0.00
  18   1     0.09   0.07   0.01    -0.03  -0.02  -0.00    -0.00  -0.00  -0.00
  19   1    -0.02   0.43  -0.71     0.00  -0.08   0.13     0.00  -0.00   0.00
  20   1    -0.01   0.24   0.34     0.00  -0.05  -0.07     0.00  -0.00  -0.00
  21   1    -0.01   0.01   0.01     0.00  -0.00  -0.00    -0.00   0.00   0.00
  22   1    -0.01   0.09  -0.08     0.00  -0.02   0.02    -0.00   0.00  -0.00
  23   1    -0.00  -0.00   0.00    -0.03  -0.00   0.01    -0.00  -0.00   0.00
  24   1     0.00   0.01   0.00     0.01   0.01   0.00     0.00   0.00   0.00
  25   1    -0.01  -0.02  -0.00    -0.13  -0.27  -0.00    -0.01  -0.01   0.00
  26   1     0.04   0.07   0.17     0.22   0.33   0.81     0.01   0.01   0.03
  27   1     0.01  -0.01   0.01     0.07  -0.06   0.04    -0.00   0.00  -0.00
  28   1     0.00   0.01  -0.00     0.00   0.01  -0.00    -0.00  -0.00   0.00
  29   7     0.00   0.00   0.00     0.00   0.00   0.00    -0.00  -0.00  -0.00
  30   6    -0.00  -0.00   0.00    -0.00  -0.00  -0.00    -0.00  -0.00  -0.00
  31   7     0.00   0.00   0.00     0.00   0.00   0.00     0.00  -0.00   0.00
  32   6     0.00  -0.00   0.00    -0.00   0.00  -0.00    -0.00   0.00  -0.00
  33   6    -0.00  -0.00  -0.00    -0.00  -0.00  -0.00    -0.00  -0.00  -0.00
  34   6    -0.00  -0.00   0.00     0.00  -0.00  -0.00    -0.00  -0.00   0.00
  35   6     0.00  -0.00   0.00    -0.00   0.00  -0.00     0.00  -0.00   0.00
  36   6     0.00   0.00   0.00     0.00   0.00  -0.00    -0.00  -0.00  -0.00
  37   6    -0.00  -0.00  -0.00     0.00  -0.00  -0.00    -0.01   0.00  -0.01
  38   6     0.00  -0.00   0.00     0.00  -0.01   0.01    -0.06   0.17  -0.16
  39   6     0.00  -0.00  -0.00     0.00  -0.00  -0.00     0.01   0.01  -0.01
  40   1    -0.00   0.00   0.00     0.00  -0.00   0.00     0.01  -0.00   0.00
  41   1    -0.00   0.00  -0.00     0.00  -0.00   0.00     0.00  -0.00   0.00
  42   1     0.00   0.00  -0.00     0.00   0.00  -0.00     0.01   0.01  -0.00
  43   1    -0.00  -0.00   0.00    -0.00  -0.00   0.01    -0.00  -0.00   0.00
  44   1     0.00   0.00  -0.00    -0.00  -0.00   0.00     0.00   0.00  -0.00
  45   1    -0.00   0.00   0.00    -0.00   0.00   0.00    -0.00   0.01   0.00
  46   1     0.00  -0.00   0.00    -0.00  -0.00   0.00     0.00  -0.00   0.00
  47   1    -0.00   0.00  -0.00     0.00  -0.00   0.00    -0.00   0.00  -0.00
  48   1    -0.00  -0.00  -0.00    -0.00  -0.00  -0.00     0.00   0.00   0.00
  49   1     0.00   0.00  -0.00    -0.00  -0.00   0.00    -0.00  -0.00   0.00
  50   1     0.00   0.00   0.00     0.00   0.00   0.00     0.02   0.01   0.02
  51   1    -0.00   0.00   0.00    -0.00   0.00   0.00     0.01  -0.01  -0.01
  52   1    -0.00   0.00   0.00     0.00  -0.00   0.00    -0.07   0.14   0.08
  53   1    -0.00   0.00  -0.00    -0.01   0.03  -0.02     0.30  -0.75   0.50
  54   1     0.00  -0.00  -0.00     0.00  -0.00  -0.00    -0.05  -0.02   0.03
  55   1    -0.00   0.00   0.00    -0.00   0.00   0.00     0.01  -0.01  -0.01
  56   6    -0.00   0.00   0.00    -0.00   0.00   0.00    -0.00   0.00   0.00
  57   8     0.00  -0.00  -0.00     0.00  -0.00  -0.00     0.00  -0.00  -0.00
  58   6    -0.00  -0.00   0.00     0.00   0.00  -0.00     0.00   0.00  -0.00
  59   8     0.00   0.00  -0.00    -0.00  -0.00   0.00    -0.00  -0.00   0.00
