      -----------------------------------------------------------      
     |                   =====================                   |     
     |                           x T B                           |     
     |                   =====================                   |     
     |                         S. Grimme                         |     
     |          Mulliken Center for Theoretical Chemistry        |     
     |                    University of Bonn                     |     
      -----------------------------------------------------------      

   * xtb version 6.5.0 (97a52f5) compiled by 'conda@d2599ee0d4f4' on 2022-05-15

   xtb is free software: you can redistribute it and/or modify it under
   the terms of the GNU Lesser General Public License as published by
   the Free Software Foundation, either version 3 of the License, or
   (at your option) any later version.
   
   xtb is distributed in the hope that it will be useful,
   but WITHOUT ANY WARRANTY; without even the implied warranty of
   MERCHANTABILITY or FITNESS FOR A PARTICULAR PURPOSE.  See the
   GNU Lesser General Public License for more details.
   
   Cite this work as:
   * C. Bannwarth, E. Caldeweyher, S. Ehlert, A. Hansen, P. Pracht,
     J. Seibert, S. Spicher, S. Grimme, WIREs Comput. Mol. Sci., 2020, 11,
     e01493. DOI: 10.1002/wcms.1493
   
   for GFN2-xTB:
   * C. Bannwarth, S. Ehlert and S. Grimme., J. Chem. Theory Comput., 2019,
     15, 1652-1671. DOI: 10.1021/acs.jctc.8b01176
   for GFN1-xTB:
   * S. Grimme, C. Bannwarth, P. Shushkov, J. Chem. Theory Comput., 2017,
     13, 1989-2009. DOI: 10.1021/acs.jctc.7b00118
   for GFN0-xTB:
   * P. Pracht, E. Caldeweyher, S. Ehlert, S. Grimme, ChemRxiv, 2019, preprint.
     DOI: 10.26434/chemrxiv.8326202.v1
   for GFN-FF:
   * S. Spicher and S. Grimme, Angew. Chem. Int. Ed., 2020, 59, 15665-15673.
     DOI: 10.1002/anie.202004239
   
   for ALPB and GBSA implicit solvation:
   * S. Ehlert, M. Stahn, S. Spicher, S. Grimme, J. Chem. Theory Comput.,
     2021, 17, 4250-4261. DOI: 10.1021/acs.jctc.1c00471
   
   for DFT-D4:
   * E. Caldeweyher, C. Bannwarth and S. Grimme, J. Chem. Phys., 2017,
     147, 034112. DOI: 10.1063/1.4993215
   * E. Caldeweyher, S. Ehlert, A. Hansen, H. Neugebauer, S. Spicher,
     C. Bannwarth and S. Grimme, J. Chem. Phys., 2019, 150, 154122.
     DOI: 10.1063/1.5090222
   * E. Caldeweyher, J.-M. Mewes, S. Ehlert and S. Grimme, Phys. Chem. Chem. Phys.
     2020, 22, 8499-8512. DOI: 10.1039/D0CP00502A
   
   for sTDA-xTB:
   * S. Grimme and C. Bannwarth, J. Chem. Phys., 2016, 145, 054103.
     DOI: 10.1063/1.4959605
   
   in the mass-spec context:
   * V. Asgeirsson, C. Bauer and S. Grimme, Chem. Sci., 2017, 8, 4879.
     DOI: 10.1039/c7sc00601b
   * J. Koopman and S. Grimme, ACS Omega 2019, 4, 12, 15120-15133.
     DOI: 10.1021/acsomega.9b02011
   
   for metadynamics refer to:
   * S. Grimme, J. Chem. Theory Comput., 2019, 155, 2847-2862
     DOI: 10.1021/acs.jctc.9b00143
   
   for SPH calculations refer to:
   * S. Spicher and S. Grimme, J. Chem. Theory Comput., 2021, 17, 1701-1714
     DOI: 10.1021/acs.jctc.0c01306
   
   with help from (in alphabetical order)
   P. Atkinson, C. Bannwarth, F. Bohle, G. Brandenburg, E. Caldeweyher
   M. Checinski, S. Dohm, S. Ehlert, S. Ehrlich, I. Gerasimov, C. Hölzer
   A. Katbashev, J. Koopman, C. Lavigne, S. Lehtola, F. März, M. Müller,
   F. Musil, H. Neugebauer, J. Pisarek, C. Plett, P. Pracht, F. Pultar,
   J. Seibert, P. Shushkov, S. Spicher, M. Stahn, M. Steiner, T. Strunk,
   J. Stückrath, T. Rose, and J. Unsleber
   
 * started run on 2022/05/27 at 18:09:15.136     

           -------------------------------------------------
          |                Calculation Setup                |
           -------------------------------------------------

          program call               : xtb struc.xyz --gfn2 --hess
          hostname                   : fedora
          coordinate file            : struc.xyz
          omp threads                :                     1

   ID    Z sym.   atoms
    1   28 Ni     1
    2    7 N      2, 4, 29, 31
    3    6 C      3, 5-12, 30, 32-39, 56, 58
    4    1 H      13-28, 40-55
    5    8 O      57, 59

molecular fragmentation (1/2 indicates fragments):
11111111111111111111111111111111111111111111111111111111122
# atoms in fragment 1/2:    57     2
 fragment masses (1/2) :      391.18       28.01
CMA distance (Bohr)    :   6.541
constraining FC (au)   :  0.0500

           -------------------------------------------------
          |                 G F N 2 - x T B                 |
           -------------------------------------------------

        Reference                      10.1021/acs.jctc.8b01176
      * Hamiltonian:
        H0-scaling (s, p, d)           1.850000    2.230000    2.230000
        zeta-weighting                 0.500000
      * Dispersion:
        s8                             2.700000
        a1                             0.520000
        a2                             5.000000
        s9                             5.000000
      * Repulsion:
        kExp                           1.500000    1.000000
        rExp                           1.000000
      * Coulomb:
        alpha                          2.000000
        third order                    shell-resolved
        anisotropic                    true
        a3                             3.000000
        a5                             4.000000
        cn-shift                       1.200000
        cn-exp                         4.000000
        max-rad                        5.000000


          ...................................................
          :                      SETUP                      :
          :.................................................:
          :  # basis functions                 146          :
          :  # atomic orbitals                 145          :
          :  # shells                           87          :
          :  # electrons                       154          :
          :  max. iterations                   250          :
          :  Hamiltonian                  GFN2-xTB          :
          :  restarted?                      false          :
          :  GBSA solvation                  false          :
          :  PC potential                    false          :
          :  electronic temp.          300.0000000     K    :
          :  accuracy                    1.0000000          :
          :  -> integral cutoff          0.2500000E+02      :
          :  -> integral neglect         0.1000000E-07      :
          :  -> SCF convergence          0.1000000E-05 Eh   :
          :  -> wf. convergence          0.1000000E-03 e    :
          :  Broyden damping             0.4000000          :
          ...................................................

 iter      E             dE          RMSdq      gap      omega  full diag
   1    -84.6563725 -0.846564E+02  0.463E+00    3.88       0.0  T
   2    -84.8729520 -0.216579E+00  0.258E+00    3.03       1.0  T
   3    -84.8801058 -0.715381E-02  0.124E+00    2.05       1.0  T
   4    -84.9173341 -0.372283E-01  0.669E-01    2.30       1.0  T
   5    -84.9174443 -0.110166E-03  0.236E-01    2.33       1.0  T
   6    -84.9191061 -0.166185E-02  0.148E-01    2.33       1.0  T
   7    -84.9193486 -0.242429E-03  0.103E-01    2.33       1.0  T
   8    -84.9195704 -0.221808E-03  0.450E-02    2.34       1.0  T
   9    -84.9195944 -0.240275E-04  0.193E-02    2.34       1.0  T
  10    -84.9195975 -0.309901E-05  0.102E-02    2.34       1.3  T
  11    -84.9195977 -0.221033E-06  0.511E-03    2.34       2.5  T
  12    -84.9195984 -0.628650E-06  0.306E-03    2.33       4.2  T
  13    -84.9195986 -0.252668E-06  0.774E-04    2.34      16.8  T
  14    -84.9195986 -0.276752E-08  0.411E-04    2.34      31.7  T

   *** convergence criteria satisfied after 14 iterations ***

         #    Occupation            Energy/Eh            Energy/eV
      -------------------------------------------------------------
         1        2.0000           -0.7178898             -19.5348
       ...           ...                  ...                  ...
        71        2.0000           -0.3630143              -9.8781
        72        2.0000           -0.3582182              -9.7476
        73        2.0000           -0.3286187              -8.9422
        74        2.0000           -0.3270126              -8.8985
        75        2.0000           -0.3182449              -8.6599
        76        2.0000           -0.3101117              -8.4386
        77        2.0000           -0.3094191              -8.4197 (HOMO)
        78                         -0.2235570              -6.0833 (LUMO)
        79                         -0.2165687              -5.8931
        80                         -0.2030377              -5.5249
        81                         -0.2016218              -5.4864
        82                         -0.1923130              -5.2331
       ...                                ...                  ...
       145                          1.2633401              34.3772
      -------------------------------------------------------------
                  HL-Gap            0.0858620 Eh            2.3364 eV
             Fermi-level           -0.2664880 Eh           -7.2515 eV

 SCC (total)                   0 d,  0 h,  0 min,  0.891 sec
 SCC setup                      ...        0 min,  0.000 sec (  0.029%)
 Dispersion                     ...        0 min,  0.020 sec (  2.223%)
 classical contributions        ...        0 min,  0.000 sec (  0.018%)
 integral evaluation            ...        0 min,  0.073 sec (  8.190%)
 iterations                     ...        0 min,  0.482 sec ( 54.048%)
 molecular gradient             ...        0 min,  0.316 sec ( 35.416%)
 printout                       ...        0 min,  0.001 sec (  0.074%)

         :::::::::::::::::::::::::::::::::::::::::::::::::::::
         ::                     SUMMARY                     ::
         :::::::::::::::::::::::::::::::::::::::::::::::::::::
         :: total energy             -83.872519309838 Eh    ::
         :: gradient norm              0.000128987416 Eh/a0 ::
         :: HOMO-LUMO gap              2.336424707494 eV    ::
         ::.................................................::
         :: SCC energy               -84.919598617688 Eh    ::
         :: -> isotropic ES            0.078404007762 Eh    ::
         :: -> anisotropic ES          0.016942531246 Eh    ::
         :: -> anisotropic XC          0.039006578182 Eh    ::
         :: -> dispersion             -0.067349139620 Eh    ::
         :: repulsion energy           1.045404218531 Eh    ::
         :: add. restraining           0.000000000000 Eh    ::
         :: total charge               0.000000000000 e     ::
         :::::::::::::::::::::::::::::::::::::::::::::::::::::

           ------------------------------------------------- 
          |                Numerical Hessian                |
           ------------------------------------------------- 
step length          :   0.00500
SCC accuracy         :   0.30000
Hessian scale factor :   1.00000
frozen atoms in %    :   0.00000    0
RMS gradient         :   0.00014
estimated CPU  time      0.39 min
estimated wall time      3.14 min

writing file <hessian>.

 projected vibrational frequencies (cm⁻¹)
eigval :       -0.00    -0.00    -0.00     0.00     0.00     0.00
eigval :       14.72    21.40    25.08    30.10    40.91    43.37
eigval :       56.78    58.71    65.91    69.89    75.25    82.81
eigval :       88.45    93.10    94.37   156.82   161.55   176.29
eigval :      183.94   215.14   232.00   236.09   248.41   257.29
eigval :      266.05   294.97   296.16   318.85   344.32   348.40
eigval :      356.74   366.50   384.55   391.86   425.92   428.16
eigval :      429.23   466.95   469.20   479.40   497.85   500.27
eigval :      519.11   520.45   523.92   617.62   620.66   657.21
eigval :      657.53   733.14   737.01   847.03   848.98   860.67
eigval :      861.27   879.20   880.41   898.12   899.21   908.57
eigval :      909.62   926.92   928.87   951.81   955.21   978.10
eigval :      979.23   996.73   998.33  1024.91  1025.60  1050.62
eigval :     1051.69  1091.11  1092.24  1102.17  1103.19  1115.99
eigval :     1116.48  1122.04  1122.92  1142.98  1143.53  1144.20
eigval :     1145.00  1164.18  1169.49  1189.07  1191.55  1200.86
eigval :     1202.74  1216.13  1218.83  1233.27  1233.64  1245.14
eigval :     1246.14  1251.80  1252.64  1268.23  1271.41  1300.89
eigval :     1303.47  1317.65  1319.68  1327.62  1330.30  1332.63
eigval :     1334.79  1340.34  1342.15  1344.59  1344.87  1354.53
eigval :     1355.15  1360.65  1360.98  1423.94  1425.87  1444.17
eigval :     1449.96  1469.26  1473.86  1476.36  1476.72  1477.57
eigval :     1478.39  1482.48  1482.63  1489.99  1491.92  1493.38
eigval :     1495.59  1499.81  1500.39  1645.13  1654.15  1974.95
eigval :     2001.45  2870.29  2875.39  2888.89  2897.57  2906.32
eigval :     2918.89  2923.90  2926.75  2939.18  2945.05  2956.55
eigval :     2959.17  2962.63  2963.56  2964.62  2964.85  2967.01
eigval :     2971.02  2973.75  2973.83  2976.34  2977.07  2977.87
eigval :     2981.44  2984.54  2985.77  2986.60  2987.02  2987.44
eigval :     3000.34  3000.85  3003.44
           -------------------------------------------------
          |                Property Printout                |
           -------------------------------------------------

    * Orbital Energies and Occupations

         #    Occupation            Energy/Eh            Energy/eV
      -------------------------------------------------------------
         1        2.0000           -0.7178867             -19.5347
       ...           ...                  ...                  ...
        65        2.0000           -0.4235942             -11.5266
        66        2.0000           -0.4208417             -11.4517
        67        2.0000           -0.4202781             -11.4364
        68        2.0000           -0.4189051             -11.3990
        69        2.0000           -0.3852766             -10.4839
        70        2.0000           -0.3813168             -10.3762
        71        2.0000           -0.3630159              -9.8782
        72        2.0000           -0.3582186              -9.7476
        73        2.0000           -0.3286211              -8.9422
        74        2.0000           -0.3270152              -8.8985
        75        2.0000           -0.3182480              -8.6600
        76        2.0000           -0.3101145              -8.4386
        77        2.0000           -0.3094197              -8.4197 (HOMO)
        78                         -0.2235537              -6.0832 (LUMO)
        79                         -0.2165654              -5.8930
        80                         -0.2030346              -5.5249
        81                         -0.2016190              -5.4863
        82                         -0.1923135              -5.2331
        83                         -0.1888532              -5.1390
        84                         -0.0120860              -0.3289
        85                         -0.0100928              -0.2746
        86                          0.0515179               1.4019
        87                          0.0531367               1.4459
        88                          0.0684284               1.8620
       ...                                ...                  ...
       145                          1.2633422              34.3773
      -------------------------------------------------------------
                  HL-Gap            0.0858660 Eh            2.3365 eV
             Fermi-level           -0.2664867 Eh           -7.2515 eV

     #   Z          covCN         q      C6AA      α(0)
     1  28 Ni       2.911    -0.893   203.004    29.399
     2   7 N        2.417    -0.111    23.525     7.202
     3   6 C        2.850     0.151    24.715     8.148
     4   7 N        2.739    -0.097    23.142     7.145
     5   6 C        3.748     0.000    20.640     6.480
     6   6 C        3.801    -0.061    21.675     6.628
     7   6 C        3.802    -0.057    21.607     6.618
     8   6 C        3.802    -0.052    21.513     6.603
     9   6 C        3.810    -0.070    21.838     6.652
    10   6 C        3.754     0.010    20.472     6.452
    11   6 C        3.806    -0.063    21.709     6.633
    12   6 C        3.772     0.018    20.309     6.422
    13   1 H        0.924     0.037     2.485     2.465
    14   1 H        0.924     0.047     2.359     2.402
    15   1 H        0.924     0.033     2.549     2.497
    16   1 H        0.924     0.040     2.444     2.445
    17   1 H        0.924     0.030     2.581     2.512
    18   1 H        0.924     0.033     2.540     2.493
    19   1 H        0.924     0.047     2.355     2.400
    20   1 H        0.924     0.041     2.440     2.443
    21   1 H        0.923     0.115     1.657     2.013
    22   1 H        0.924     0.042     2.427     2.436
    23   1 H        0.924     0.036     2.506     2.476
    24   1 H        0.923     0.029     2.596     2.520
    25   1 H        0.924     0.046     2.369     2.407
    26   1 H        0.925     0.033     2.540     2.492
    27   1 H        0.924     0.072     2.059     2.244
    28   1 H        0.923     0.026     2.648     2.545
    29   7 N        2.392    -0.111    23.557     7.207
    30   6 C        2.846     0.152    24.701     8.145
    31   7 N        2.739    -0.097    23.128     7.143
    32   6 C        3.747     0.001    20.632     6.479
    33   6 C        3.801    -0.061    21.680     6.629
    34   6 C        3.802    -0.057    21.600     6.617
    35   6 C        3.802    -0.051    21.489     6.600
    36   6 C        3.811    -0.072    21.864     6.656
    37   6 C        3.753     0.010    20.472     6.452
    38   6 C        3.806    -0.065    21.750     6.639
    39   6 C        3.766     0.017    20.319     6.425
    40   1 H        0.924     0.039     2.466     2.456
    41   1 H        0.924     0.048     2.349     2.397
    42   1 H        0.924     0.034     2.535     2.490
    43   1 H        0.924     0.039     2.467     2.456
    44   1 H        0.924     0.033     2.543     2.494
    45   1 H        0.924     0.030     2.584     2.514
    46   1 H        0.924     0.034     2.526     2.486
    47   1 H        0.924     0.033     2.540     2.492
    48   1 H        0.924     0.119     1.625     1.993
    49   1 H        0.924     0.046     2.373     2.409
    50   1 H        0.924     0.034     2.532     2.488
    51   1 H        0.923     0.033     2.543     2.494
    52   1 H        0.924     0.037     2.483     2.464
    53   1 H        0.925     0.036     2.498     2.472
    54   1 H        0.924     0.061     2.191     2.315
    55   1 H        0.924     0.044     2.401     2.423
    56   6 C        1.740     0.271    25.078     8.101
    57   8 O        0.856    -0.198    18.032     5.693
    58   6 C        1.739     0.279    24.914     8.074
    59   8 O        0.856    -0.197    18.016     5.691

 Mol. C6AA /au·bohr⁶  :      34067.726976
 Mol. C8AA /au·bohr⁸  :     865147.547708
 Mol. α(0) /au        :        284.564328


Wiberg/Mayer (AO) data.
largest (>0.10) Wiberg bond orders for each atom

 ---------------------------------------------------------------------------
     #   Z sym  total        # sym  WBO       # sym  WBO       # sym  WBO
 ---------------------------------------------------------------------------
     1  28 Ni   3.989 --    56 C    1.183    58 C    1.171     2 N    0.458
                            29 N    0.452    57 O    0.217    59 O    0.211
     2   7 N    3.429 --     3 C    1.621    12 C    1.004     1 Ni   0.458
                             4 N    0.159
     3   6 C    3.967 --     2 N    1.621     4 N    1.220     9 C    0.998
     4   7 N    3.458 --     3 C    1.220     5 C    0.993    10 C    0.986
                             2 N    0.159
     5   6 C    3.977 --     6 C    0.994     4 N    0.993    13 H    0.974
                            14 H    0.965
     6   6 C    3.996 --     7 C    1.009     5 C    0.994    15 H    0.976
                            16 H    0.976
     7   6 C    3.997 --     6 C    1.009     8 C    1.009    18 H    0.976
                            17 H    0.976
     8   6 C    3.994 --     7 C    1.009     9 C    0.992    20 H    0.975
                            19 H    0.975
     9   6 C    3.992 --     3 C    0.998     8 C    0.992    22 H    0.959
                            21 H    0.909
    10   6 C    3.979 --    11 C    1.007     4 N    0.986    23 H    0.968
                            24 H    0.968
    11   6 C    3.995 --    10 C    1.007    12 C    0.996    25 H    0.976
                            26 H    0.975
    12   6 C    3.989 --     2 N    1.004    11 C    0.996    28 H    0.961
                            27 H    0.954
    13   1 H    0.998 --     5 C    0.974
    14   1 H    0.997 --     5 C    0.965
    15   1 H    0.998 --     6 C    0.976
    16   1 H    0.998 --     6 C    0.976
    17   1 H    0.999 --     7 C    0.976
    18   1 H    0.999 --     7 C    0.976
    19   1 H    0.998 --     8 C    0.975
    20   1 H    0.998 --     8 C    0.975
    21   1 H    0.987 --     9 C    0.909
    22   1 H    0.998 --     9 C    0.959
    23   1 H    0.998 --    10 C    0.968
    24   1 H    0.999 --    10 C    0.968
    25   1 H    0.998 --    11 C    0.976
    26   1 H    0.998 --    11 C    0.975
    27   1 H    0.994 --    12 C    0.954
    28   1 H    0.998 --    12 C    0.961
    29   7 N    3.418 --    30 C    1.625    39 C    1.004     1 Ni   0.452
                            31 N    0.162
    30   6 C    3.967 --    29 N    1.625    31 N    1.217    36 C    0.996
    31   7 N    3.461 --    30 C    1.217    32 C    0.994    37 C    0.988
                            29 N    0.162
    32   6 C    3.977 --    33 C    0.994    31 N    0.994    40 H    0.973
                            41 H    0.964
    33   6 C    3.997 --    34 C    1.010    32 C    0.994    42 H    0.976
                            43 H    0.976
    34   6 C    3.996 --    33 C    1.010    35 C    1.008    45 H    0.977
                            44 H    0.976
    35   6 C    3.997 --    34 C    1.008    36 C    0.993    47 H    0.976
                            46 H    0.976
    36   6 C    3.990 --    30 C    0.996    35 C    0.993    49 H    0.958
                            48 H    0.915
    37   6 C    3.980 --    38 C    1.006    31 N    0.988    50 H    0.970
                            51 H    0.967
    38   6 C    3.995 --    37 C    1.006    39 C    0.997    52 H    0.977
                            53 H    0.975
    39   6 C    3.989 --    29 N    1.004    38 C    0.997    54 H    0.958
                            55 H    0.957
    40   1 H    0.998 --    32 C    0.973
    41   1 H    0.997 --    32 C    0.964
    42   1 H    0.998 --    33 C    0.976
    43   1 H    0.998 --    33 C    0.976
    44   1 H    0.999 --    34 C    0.976
    45   1 H    0.999 --    34 C    0.977
    46   1 H    0.999 --    35 C    0.976
    47   1 H    0.998 --    35 C    0.976
    48   1 H    0.986 --    36 C    0.915
    49   1 H    0.998 --    36 C    0.958
    50   1 H    0.999 --    37 C    0.970
    51   1 H    0.999 --    37 C    0.967
    52   1 H    0.999 --    38 C    0.977
    53   1 H    0.998 --    38 C    0.975
    54   1 H    0.996 --    39 C    0.958
    55   1 H    0.997 --    39 C    0.957
    56   6 C    3.502 --    57 O    2.210     1 Ni   1.183
    57   8 O    2.485 --    56 C    2.210     1 Ni   0.217
    58   6 C    3.492 --    59 O    2.216     1 Ni   1.171
    59   8 O    2.486 --    58 C    2.216     1 Ni   0.211
 ---------------------------------------------------------------------------

Topologies differ in total number of bonds
Writing topology from bond orders to xtbtopo.mol

molecular dipole:
                 x           y           z       tot (Debye)
 q only:        0.245       2.324       1.107
   full:        0.417       2.568       1.390       7.497
molecular quadrupole (traceless):
                xx          xy          yy          xz          yz          zz
 q only:       24.074      -7.191     -13.776       9.100      -4.700     -10.298
  q+dip:       28.806      -9.488     -16.569       6.468      -5.205     -12.237
   full:       27.950      -9.962     -15.446       8.441      -4.800     -12.504

           -------------------------------------------------
          |               Frequency Printout                |
           -------------------------------------------------
 projected vibrational frequencies (cm⁻¹)
eigval :       -0.00    -0.00    -0.00     0.00     0.00     0.00
eigval :       14.72    21.40    25.08    30.10    40.91    43.37
eigval :       56.78    58.71    65.91    69.89    75.25    82.81
eigval :       88.45    93.10    94.37   156.82   161.55   176.29
eigval :      183.94   215.14   232.00   236.09   248.41   257.29
eigval :      266.05   294.97   296.16   318.85   344.32   348.40
eigval :      356.74   366.50   384.55   391.86   425.92   428.16
eigval :      429.23   466.95   469.20   479.40   497.85   500.27
eigval :      519.11   520.45   523.92   617.62   620.66   657.21
eigval :      657.53   733.14   737.01   847.03   848.98   860.67
eigval :      861.27   879.20   880.41   898.12   899.21   908.57
eigval :      909.62   926.92   928.87   951.81   955.21   978.10
eigval :      979.23   996.73   998.33  1024.91  1025.60  1050.62
eigval :     1051.69  1091.11  1092.24  1102.17  1103.19  1115.99
eigval :     1116.48  1122.04  1122.92  1142.98  1143.53  1144.20
eigval :     1145.00  1164.18  1169.49  1189.07  1191.55  1200.86
eigval :     1202.74  1216.13  1218.83  1233.27  1233.64  1245.14
eigval :     1246.14  1251.80  1252.64  1268.23  1271.41  1300.89
eigval :     1303.47  1317.65  1319.68  1327.62  1330.30  1332.63
eigval :     1334.79  1340.34  1342.15  1344.59  1344.87  1354.53
eigval :     1355.15  1360.65  1360.98  1423.94  1425.87  1444.17
eigval :     1449.96  1469.26  1473.86  1476.36  1476.72  1477.57
eigval :     1478.39  1482.48  1482.63  1489.99  1491.92  1493.38
eigval :     1495.59  1499.81  1500.39  1645.13  1654.15  1974.95
eigval :     2001.45  2870.29  2875.39  2888.89  2897.57  2906.32
eigval :     2918.89  2923.90  2926.75  2939.18  2945.05  2956.55
eigval :     2959.17  2962.63  2963.56  2964.62  2964.85  2967.01
eigval :     2971.02  2973.75  2973.83  2976.34  2977.07  2977.87
eigval :     2981.44  2984.54  2985.77  2986.60  2987.02  2987.44
eigval :     3000.34  3000.85  3003.44
 reduced masses (amu)
   1: 19.90   2: 12.69   3: 13.35   4: 12.41   5: 15.49   6: 18.42   7: 12.77   8: 12.89
   9: 14.43  10: 12.27  11: 16.58  12: 15.35  13: 13.27  14: 13.63  15:  9.83  16: 16.48
  17: 10.75  18: 12.57  19: 11.19  20: 15.42  21: 11.96  22: 17.53  23: 14.77  24: 25.10
  25: 26.48  26: 16.70  27:  9.92  28:  7.73  29: 11.62  30: 10.06  31: 12.27  32:  7.98
  33:  7.62  34: 20.07  35:  9.76  36: 11.06  37:  9.87  38:  8.66  39:  9.00  40: 10.29
  41: 18.74  42:  9.83  43: 10.95  44:  8.89  45:  8.30  46: 12.48  47: 10.19  48:  9.62
  49: 11.34  50: 10.44  51: 17.29  52: 10.78  53: 10.59  54:  7.99  55:  8.07  56:  9.94
  57: 10.04  58:  6.73  59:  6.64  60:  5.63  61:  5.60  62:  6.80  63:  7.01  64:  4.11
  65:  4.81  66:  7.22  67:  6.43  68:  6.02  69:  6.13  70:  8.49  71:  8.32  72:  7.29
  73:  7.26  74:  7.50  75:  7.44  76:  7.31  77:  7.44  78:  6.47  79:  6.47  80:  6.83
  81:  6.92  82:  6.41  83:  6.42  84:  6.58  85:  6.53  86:  6.85  87:  7.29  88:  7.23
  89:  7.40  90:  7.72  91:  7.88  92:  3.72  93:  3.98  94:  4.30  95:  3.94  96:  4.27
  97:  4.31  98:  4.87  99:  4.55 100:  4.44 101:  4.25 102:  2.81 103:  2.93 104:  3.87
 105:  3.79 106:  5.45 107:  5.94 108:  4.11 109:  4.11 110:  4.83 111:  4.85 112:  4.68
 113:  4.72 114:  4.68 115:  4.54 116:  5.20 117:  5.62 118:  4.46 119:  4.54 120:  4.89
 121:  4.86 122:  4.99 123:  4.97 124:  8.72 125:  8.02 126:  4.15 127:  2.62 128:  1.97
 129:  1.99 130:  1.95 131:  1.98 132:  2.08 133:  2.02 134:  2.12 135:  2.12 136:  2.15
 137:  2.07 138:  2.11 139:  2.12 140:  1.94 141:  1.95 142: 12.24 143: 12.27 144: 13.64
 145: 13.63 146:  1.86 147:  1.86 148:  1.76 149:  1.76 150:  1.81 151:  1.78 152:  1.58
 153:  1.58 154:  1.82 155:  1.89 156:  1.86 157:  1.91 158:  1.65 159:  1.69 160:  1.87
 161:  1.66 162:  1.70 163:  1.63 164:  1.77 165:  1.78 166:  1.82 167:  1.79 168:  1.68
 169:  1.60 170:  1.66 171:  1.83 172:  1.65 173:  1.73 174:  1.61 175:  1.59 176:  1.60
 177:  1.66
 IR intensities (km·mol⁻¹)
   1:  0.41   2:  0.40   3:  0.13   4:  1.26   5:  0.22   6:  0.18   7:  1.05   8:  1.72
   9:  0.51  10:  0.55  11:  0.08  12:  0.10  13:  0.17  14:  0.49  15:  0.18  16:  1.17
  17:  0.34  18:  1.39  19:  1.00  20:  1.25  21:  0.54  22:  0.22  23:  0.24  24:  0.41
  25:  0.64  26:  2.95  27:  0.73  28:  0.77  29:  2.11  30:  2.01  31:  1.89  32:  0.48
  33:  0.21  34:  5.92  35:  4.31  36:  3.66  37:  1.27  38:  5.09  39:  1.30  40:  1.19
  41: 19.89  42:  1.00  43:  3.14  44:  1.61  45:  2.30  46:  0.34  47:  1.10  48:  0.95
  49:  2.22  50:  5.22  51:  2.36  52: 11.58  53:  8.73  54:  2.05  55:  6.21  56:  0.30
  57:  1.18  58:  0.45  59:  0.05  60: 10.29  61:  4.21  62:  2.74  63:  3.90  64:  1.11
  65:  4.30  66:  2.74  67:  0.77  68:  3.30  69:  3.81  70:  1.50  71:  0.53  72: 14.98
  73:  7.84  74:  5.52  75:  5.83  76: 21.13  77:  7.26  78:  4.93  79:  7.12  80:  1.75
  81:  2.33  82: 10.57  83:  7.77  84:  8.19  85:  2.21  86: 22.50  87: 11.31  88:  6.22
  89:  1.39  90:  0.49  91:  0.19  92:  2.77  93:  2.87  94: 17.81  95: 11.93  96:  4.32
  97:  7.77  98:  5.17  99: 10.99 100: 13.33 101: 13.48 102:  2.19 103:  2.89 104:  3.75
 105:  3.46 106: 15.96 107: 13.44 108: 32.26 109: 14.62 110: 21.18 111: 14.64 112:  3.17
 113:  1.41 114: 17.88 115: 23.93 116: 22.00 117: 30.25 118:  5.00 119: 23.53 120:  0.64
 121:  0.16 122:  9.78 123:  3.96 124:142.13 125: 40.29 126: 41.66 127: 20.17 128:  8.12
 129:  1.11 130:  0.58 131:  0.68 132:  1.09 133:  0.63 134:  4.44 135:  1.46 136:  7.11
 137:  6.00 138:  1.06 139:  0.61 140:  0.49 141:  0.34 142:828.10 143:303.99 144:******
 145:662.35 146: 35.15 147: 37.53 148:  0.20 149: 45.80 150: 34.68 151:  1.22 152: 57.44
 153: 54.58 154: 16.94 155: 15.10 156: 11.19 157: 18.27 158: 12.47 159: 22.62 160:  9.27
 161: 17.38 162: 13.06 163: 12.90 164: 20.71 165: 53.16 166: 38.79 167: 36.56 168: 21.34
 169: 69.15 170:119.77 171: 63.70 172: 63.25 173: 47.62 174: 79.97 175: 35.81 176: 51.85
 177: 49.54
 Raman intensities (amu)
   1:  0.00   2:  0.00   3:  0.00   4:  0.00   5:  0.00   6:  0.00   7:  0.00   8:  0.00
   9:  0.00  10:  0.00  11:  0.00  12:  0.00  13:  0.00  14:  0.00  15:  0.00  16:  0.00
  17:  0.00  18:  0.00  19:  0.00  20:  0.00  21:  0.00  22:  0.00  23:  0.00  24:  0.00
  25:  0.00  26:  0.00  27:  0.00  28:  0.00  29:  0.00  30:  0.00  31:  0.00  32:  0.00
  33:  0.00  34:  0.00  35:  0.00  36:  0.00  37:  0.00  38:  0.00  39:  0.00  40:  0.00
  41:  0.00  42:  0.00  43:  0.00  44:  0.00  45:  0.00  46:  0.00  47:  0.00  48:  0.00
  49:  0.00  50:  0.00  51:  0.00  52:  0.00  53:  0.00  54:  0.00  55:  0.00  56:  0.00
  57:  0.00  58:  0.00  59:  0.00  60:  0.00  61:  0.00  62:  0.00  63:  0.00  64:  0.00
  65:  0.00  66:  0.00  67:  0.00  68:  0.00  69:  0.00  70:  0.00  71:  0.00  72:  0.00
  73:  0.00  74:  0.00  75:  0.00  76:  0.00  77:  0.00  78:  0.00  79:  0.00  80:  0.00
  81:  0.00  82:  0.00  83:  0.00  84:  0.00  85:  0.00  86:  0.00  87:  0.00  88:  0.00
  89:  0.00  90:  0.00  91:  0.00  92:  0.00  93:  0.00  94:  0.00  95:  0.00  96:  0.00
  97:  0.00  98:  0.00  99:  0.00 100:  0.00 101:  0.00 102:  0.00 103:  0.00 104:  0.00
 105:  0.00 106:  0.00 107:  0.00 108:  0.00 109:  0.00 110:  0.00 111:  0.00 112:  0.00
 113:  0.00 114:  0.00 115:  0.00 116:  0.00 117:  0.00 118:  0.00 119:  0.00 120:  0.00
 121:  0.00 122:  0.00 123:  0.00 124:  0.00 125:  0.00 126:  0.00 127:  0.00 128:  0.00
 129:  0.00 130:  0.00 131:  0.00 132:  0.00 133:  0.00 134:  0.00 135:  0.00 136:  0.00
 137:  0.00 138:  0.00 139:  0.00 140:  0.00 141:  0.00 142:  0.00 143:  0.00 144:  0.00
 145:  0.00 146:  0.00 147:  0.00 148:  0.00 149:  0.00 150:  0.00 151:  0.00 152:  0.00
 153:  0.00 154:  0.00 155:  0.00 156:  0.00 157:  0.00 158:  0.00 159:  0.00 160:  0.00
 161:  0.00 162:  0.00 163:  0.00 164:  0.00 165:  0.00 166:  0.00 167:  0.00 168:  0.00
 169:  0.00 170:  0.00 171:  0.00 172:  0.00 173:  0.00 174:  0.00 175:  0.00 176:  0.00
 177:  0.00
 output can be read by thermo (or use thermo option).
 writing <g98.out> molden fake output.
 recommended (thermochemical) frequency scaling factor: 1.0
           -------------------------------------------------
          |             Thermodynamic Functions             |
Molecule has no symmetry elements
It seems to be the C1 point group
           -------------------------------------------------

c1  symmetry found (for desy threshold:  0.10E+00) used in thermo

          ...................................................
          :                      SETUP                      :
          :.................................................:
          :  # frequencies                         171      :
          :  # imaginary freq.                       0      :
          :  linear?                             false      :
          :  only rotor calc.                    false      :
          :  symmetry                               c1      :
          :  rotational number                       1      :
          :  scaling factor                  1.0000000      :
          :  rotor cutoff                   50.0000000 cm⁻¹ :
          :  imag. cutoff                  -20.0000000 cm⁻¹ :
          :.................................................:

    mode    ω/cm⁻¹     T·S(HO)/kcal·mol⁻¹    T·S(FR)/kcal·mol⁻¹   T·S(vib)
   ------------------------------------------------------------------------
       1     14.72    -2.15934 (  0.75%)    -1.41863 ( 99.25%)    -1.42416
       2     21.40    -1.93781 (  3.25%)    -1.30783 ( 96.75%)    -1.32830
       3     25.08    -1.84410 (  5.95%)    -1.26094 ( 94.05%)    -1.29564
       4     30.10    -1.73615 ( 11.60%)    -1.20689 ( 88.40%)    -1.26830
       5     40.91    -1.55470 ( 30.95%)    -1.11596 ( 69.05%)    -1.25174
       6     43.37    -1.52029 ( 36.14%)    -1.09869 ( 63.86%)    -1.25104
       7     56.78    -1.36133 ( 62.46%)    -1.01884 ( 37.54%)    -1.23274
       8     58.71    -1.34169 ( 65.53%)    -1.00895 ( 34.47%)    -1.22699
       9     65.91    -1.27370 ( 75.12%)    -0.97470 ( 24.88%)    -1.19930
      10     69.89    -1.23924 ( 79.24%)    -0.95732 ( 20.76%)    -1.18072
      11     75.25    -1.19590 ( 83.69%)    -0.93543 ( 16.31%)    -1.15342
      12     82.81    -1.13990 ( 88.27%)    -0.90709 ( 11.73%)    -1.11258
      13     88.45    -1.10136 ( 90.74%)    -0.88754 (  9.26%)    -1.08155
      14     93.10    -1.07153 ( 92.32%)    -0.87239 (  7.68%)    -1.05623
      15     94.37    -1.06362 ( 92.69%)    -0.86837 (  7.31%)    -1.04936
      16    156.82    -0.77155 ( 98.98%)    -0.71791 (  1.02%)    -0.77100
      17    161.55    -0.75478 ( 99.09%)    -0.70911 (  0.91%)    -0.75437
      18    176.29    -0.70582 ( 99.36%)    -0.68325 (  0.64%)    -0.70568
      19    183.94    -0.68219 ( 99.46%)    -0.67067 (  0.54%)    -0.68213
      20    215.14    -0.59619 ( 99.71%)    -0.62425 (  0.29%)    -0.59627
      21    232.00    -0.55557 ( 99.78%)    -0.60189 (  0.22%)    -0.55567
      22    236.09    -0.54625 ( 99.80%)    -0.59672 (  0.20%)    -0.54635
      23    248.41    -0.51933 ( 99.84%)    -0.58165 (  0.16%)    -0.51943
      24    257.29    -0.50092 ( 99.86%)    -0.57125 (  0.14%)    -0.50102
      25    266.05    -0.48351 ( 99.88%)    -0.56133 (  0.12%)    -0.48361
      26    294.97    -0.43090 ( 99.92%)    -0.53076 (  0.08%)    -0.43099
      27    296.16    -0.42889 ( 99.92%)    -0.52957 (  0.08%)    -0.42897
   ------------------------------------------------------------------------

   temp. (K)  partition function   enthalpy   heat capacity  entropy
                                   cal/mol     cal/K/mol   cal/K/mol   J/K/mol
 298.15  VIB  0.546E+14            16514.362    101.560    106.748
         ROT  0.152E+08              888.752      2.981     35.843
         INT  0.829E+21            17403.114    104.541    142.591
         TR   0.830E+28             1481.254      4.968     43.970
         TOT                       18884.3678   109.5092   186.5613   780.5726

       T/K    H(0)-H(T)+PV         H(T)/Eh          T*S/Eh         G(T)/Eh
   ------------------------------------------------------------------------
    298.15    0.300942E-01    0.528591E+00    0.886413E-01    0.439949E+00
   ------------------------------------------------------------------------

         :::::::::::::::::::::::::::::::::::::::::::::::::::::
         ::                  THERMODYNAMIC                  ::
         :::::::::::::::::::::::::::::::::::::::::::::::::::::
         :: total free energy         -83.432569924344 Eh   ::
         ::.................................................::
         :: total energy              -83.872519311405 Eh   ::
         :: zero point energy           0.498496543844 Eh   ::
         :: G(RRHO) w/o ZPVE           -0.058547156784 Eh   ::
         :: G(RRHO) contrib.            0.439949387061 Eh   ::
         :::::::::::::::::::::::::::::::::::::::::::::::::::::

           -------------------------------------------------
          | TOTAL ENERGY              -83.872519311405 Eh   |
          | TOTAL ENTHALPY            -83.343928611908 Eh   |
          | TOTAL FREE ENERGY         -83.432569924344 Eh   |
          | GRADIENT NORM               0.000138064068 Eh/α |
          | HOMO-LUMO GAP               2.336534087879 eV   |
           -------------------------------------------------

------------------------------------------------------------------------
 * finished run on 2022/05/27 at 18:12:01.602     
------------------------------------------------------------------------
 total:
 * wall-time:     0 d,  0 h,  2 min, 46.466 sec
 *  cpu-time:     0 d,  0 h,  0 min, 22.713 sec
 * ratio c/w:     0.136 speedup
 SCF:
 * wall-time:     0 d,  0 h,  0 min,  0.891 sec
 *  cpu-time:     0 d,  0 h,  0 min,  0.109 sec
 * ratio c/w:     0.122 speedup
 analytical hessian:
 * wall-time:     0 d,  0 h,  2 min, 45.516 sec
 *  cpu-time:     0 d,  0 h,  0 min, 22.566 sec
 * ratio c/w:     0.136 speedup

