 Entering Gaussian System
 *********************************************
 Gaussian 98:
 frequency output generated by the xtb code
 *********************************************
                         Standard orientation:
 --------------------------------------------------------------------
  Center     Atomic     Atomic              Coordinates (Angstroms)
  Number     Number      Type              X           Y           Z
 --------------------------------------------------------------------
    1         28             0        0.043404   -0.217393   -0.970378
    2          7             0       -1.590597   -0.137065    0.440416
    3          6             0       -2.745827    0.393885    0.253154
    4          7             0       -3.768196    0.374823    1.148082
    5          6             0       -5.101138    0.806666    0.789689
    6          6             0       -5.742291   -0.049069   -0.309052
    7          6             0       -5.352914    0.407108   -1.712257
    8          6             0       -3.860718    0.272633   -1.999283
    9          6             0       -2.976077    1.092840   -1.055426
   10          6             0       -3.628296   -0.331260    2.405219
   11          6             0       -2.166228   -0.337444    2.823997
   12          6             0       -1.351206   -0.887864    1.659976
   13          1             0       -5.710117    0.749368    1.695147
   14          1             0       -5.083225    1.854926    0.472532
   15          1             0       -6.828270    0.009316   -0.208485
   16          1             0       -5.448861   -1.091047   -0.164951
   17          1             0       -5.651848    1.451266   -1.840871
   18          1             0       -5.908022   -0.184909   -2.443509
   19          1             0       -3.559120   -0.774741   -1.938826
   20          1             0       -3.674933    0.605162   -3.022236
   21          1             0       -1.984052    1.194978   -1.514651
   22          1             0       -3.398311    2.088012   -0.904437
   23          1             0       -3.997451   -1.362836    2.312036
   24          1             0       -4.238883    0.177532    3.159484
   25          1             0       -2.030375   -0.943726    3.719714
   26          1             0       -1.846391    0.684422    3.041401
   27          1             0       -1.615205   -1.939110    1.483467
   28          1             0       -0.281617   -0.853260    1.879600
   29          7             0        1.552827    0.353388    0.465942
   30          6             0        2.704729   -0.191214    0.633200
   31          7             0        3.648120    0.232266    1.514903
   32          6             0        4.995219   -0.293801    1.497919
   33          6             0        5.746512    0.001691    0.194531
   34          6             0        5.464769   -1.030318   -0.893746
   35          6             0        4.005616   -1.058191   -1.337886
   36          6             0        3.025374   -1.391807   -0.209164
   37          6             0        3.422770    1.419215    2.314293
   38          6             0        1.931459    1.590592    2.558591
   39          6             0        1.232029    1.561421    1.205032
   40          1             0        5.527848    0.163987    2.335013
   41          1             0        4.977777   -1.374960    1.672532
   42          1             0        6.818561    0.009836    0.403084
   43          1             0        5.467295    0.996458   -0.159056
   44          1             0        5.748049   -2.020166   -0.524877
   45          1             0        6.093324   -0.811421   -1.759949
   46          1             0        3.725652   -0.095850   -1.770485
   47          1             0        3.897967   -1.809946   -2.121976
   48          1             0        2.072874   -1.699870   -0.659861
   49          1             0        3.408636   -2.212620    0.399769
   50          1             0        3.825863    2.308277    1.808096
   51          1             0        3.954453    1.303719    3.265390
   52          1             0        1.737372    2.527684    3.080624
   53          1             0        1.567183    0.765038    3.174662
   54          1             0        1.538017    2.430785    0.607952
   55          1             0        0.147198    1.613121    1.323237
   56          6             0        0.590820    1.028051   -2.110071
   57          8             0        1.395802    1.608672   -2.695823
   58          6             0       -0.430332   -1.844160   -1.498065
   59          8             0       -1.192762   -2.638691   -1.838175
 --------------------------------------------------------------------
     1 basis functions        1 primitive gaussians
     1 alpha electrons        1 beta electrons

 Harmonic frequencies (cm**-1), IR intensities (km*mol⁻¹),
 Raman scattering activities (A**4/amu), Raman depolarization ratios,
 reduced masses (AMU), force constants (mDyne/A) and normal coordinates:
                      1                      2                      3
                        a                      a                      a 
 Frequencies --    12.9202                16.9924                21.4930
 Red. masses --    14.7896                14.4717                 9.8806
 Frc consts  --     0.0000                 0.0000                 0.0000
 IR Inten    --     0.7412                 1.3686                 0.0783
 Raman Activ --     0.0000                 0.0000                 0.0000
 Depolar     --     0.0000                 0.0000                 0.0000
 Atom AN      X      Y      Z        X      Y      Z        X      Y      Z
   1  28     0.00  -0.26   0.06     0.01  -0.06  -0.27     0.00  -0.01  -0.06
   2   7    -0.02  -0.06   0.01     0.04  -0.08  -0.08    -0.02   0.01  -0.04
   3   6     0.01   0.02   0.01     0.05  -0.02   0.01    -0.01   0.01  -0.06
   4   7    -0.00   0.05   0.00     0.12   0.02   0.08     0.02   0.13  -0.03
   5   6     0.03   0.14  -0.00     0.11   0.09   0.17     0.01   0.11  -0.03
   6   6    -0.00   0.23  -0.05    -0.02   0.13   0.21    -0.05  -0.01   0.10
   7   6     0.05   0.27  -0.02    -0.09   0.12   0.18    -0.08  -0.19   0.03
   8   6     0.04   0.19  -0.01    -0.11   0.04   0.08    -0.10  -0.25  -0.00
   9   6     0.08   0.10   0.04    -0.00  -0.01   0.02    -0.05  -0.15  -0.14
  10   6    -0.06  -0.03  -0.04     0.16  -0.02   0.05     0.04   0.29   0.06
  11   6    -0.07  -0.13  -0.01     0.18  -0.08  -0.04     0.06   0.27  -0.00
  12   6    -0.08  -0.12  -0.02     0.09  -0.09  -0.10    -0.02   0.10   0.02
  13   1     0.00   0.04  -0.00     0.05   0.03   0.06     0.01   0.07  -0.00
  14   1     0.03   0.04   0.01     0.04   0.03   0.05     0.01   0.02  -0.05
  15   1     0.00   0.08  -0.02    -0.00   0.06   0.08    -0.01   0.01   0.04
  16   1    -0.02   0.06  -0.03    -0.02   0.03   0.05    -0.02   0.00   0.06
  17   1     0.03   0.08   0.01    -0.01   0.04   0.06    -0.02  -0.06  -0.03
  18   1     0.01   0.10  -0.02    -0.05   0.04   0.06    -0.03  -0.08   0.03
  19   1    -0.01   0.05  -0.02    -0.05   0.01   0.02    -0.03  -0.07   0.03
  20   1     0.02   0.07   0.00    -0.05   0.01   0.02    -0.04  -0.11  -0.02
  21   1     0.03   0.02   0.02    -0.01  -0.02  -0.01    -0.02  -0.06  -0.05
  22   1     0.04   0.03   0.02     0.02   0.00   0.02    -0.01  -0.04  -0.07
  23   1    -0.03  -0.00  -0.03     0.03   0.00   0.02    -0.00   0.09   0.06
  24   1    -0.01  -0.01  -0.01     0.06  -0.00   0.03     0.03   0.12   0.01
  25   1    -0.03  -0.05  -0.01     0.06  -0.03  -0.02     0.02   0.10   0.02
  26   1    -0.01  -0.05   0.01     0.07  -0.03  -0.01     0.04   0.08  -0.04
  27   1    -0.04  -0.03  -0.02     0.01  -0.02  -0.03    -0.03   0.03   0.04
  28   1    -0.02  -0.05  -0.00     0.03  -0.04  -0.05    -0.00   0.01  -0.01
  29   7    -0.02  -0.06   0.02    -0.04   0.03  -0.11     0.02  -0.03  -0.03
  30   6     0.02   0.01  -0.02    -0.05   0.02  -0.01     0.02  -0.04  -0.05
  31   7     0.00   0.04  -0.02    -0.12   0.02   0.07    -0.02  -0.13   0.03
  32   6     0.03   0.12  -0.06    -0.13  -0.01   0.18    -0.01  -0.11   0.02
  33   6     0.00   0.23  -0.05    -0.00  -0.03   0.25     0.04   0.05   0.08
  34   6     0.05   0.26  -0.09     0.07  -0.02   0.23     0.08   0.18  -0.05
  35   6     0.05   0.19  -0.08     0.11   0.01   0.10     0.10   0.22  -0.10
  36   6     0.08   0.07  -0.08     0.00   0.02   0.01     0.06   0.07  -0.18
  37   6    -0.07  -0.02   0.05    -0.16   0.03   0.03    -0.05  -0.23   0.17
  38   6    -0.08  -0.12   0.06    -0.18   0.05  -0.08    -0.06  -0.24   0.11
  39   6    -0.08  -0.10   0.07    -0.08   0.04  -0.13     0.01  -0.09   0.06
  40   1     0.00   0.03  -0.01    -0.06  -0.01   0.07    -0.01  -0.06   0.03
  41   1     0.03   0.03  -0.03    -0.05  -0.00   0.05    -0.00  -0.04  -0.03
  42   1     0.00   0.08  -0.02    -0.01  -0.02   0.10     0.01   0.01   0.04
  43   1    -0.02   0.07  -0.00     0.02  -0.01   0.07     0.01   0.03   0.06
  44   1     0.04   0.08  -0.04     0.00  -0.01   0.07     0.02   0.04  -0.05
  45   1     0.01   0.10  -0.03     0.04  -0.01   0.08     0.03   0.08  -0.00
  46   1    -0.00   0.05  -0.01     0.05   0.01   0.02     0.03   0.08   0.00
  47   1     0.03   0.06  -0.03     0.05   0.00   0.02     0.04   0.09  -0.06
  48   1     0.03   0.01  -0.03     0.01   0.01  -0.02     0.02   0.03  -0.07
  49   1     0.04   0.02  -0.04    -0.02   0.00   0.01     0.01  -0.00  -0.08
  50   1    -0.04   0.01   0.03    -0.03   0.01   0.01    -0.00  -0.05   0.09
  51   1    -0.02  -0.01   0.01    -0.07   0.01   0.02    -0.03  -0.11   0.06
  52   1    -0.04  -0.05   0.03    -0.06   0.02  -0.03    -0.02  -0.08   0.06
  53   1    -0.01  -0.05   0.01    -0.07   0.02  -0.03    -0.03  -0.09  -0.00
  54   1    -0.04  -0.02   0.03    -0.01   0.01  -0.04     0.02  -0.01   0.05
  55   1    -0.02  -0.05   0.02    -0.03   0.01  -0.06     0.00  -0.02   0.00
  56   6     0.01  -0.19  -0.05    -0.04  -0.02  -0.14     0.01   0.02   0.01
  57   8     0.02  -0.28  -0.10    -0.08  -0.03  -0.21     0.02   0.07   0.07
  58   6     0.00  -0.15   0.13     0.05  -0.04  -0.13    -0.01  -0.01   0.01
  59   8     0.00  -0.20   0.21     0.10  -0.06  -0.19    -0.02  -0.03   0.06
                      4                      5                      6
                        a                      a                      a 
 Frequencies --    24.0385                39.8143                43.3360
 Red. masses --    13.3578                12.9141                14.3356
 Frc consts  --     0.0000                 0.0000                 0.0000
 IR Inten    --     0.3383                 0.1761                 0.0028
 Raman Activ --     0.0000                 0.0000                 0.0000
 Depolar     --     0.0000                 0.0000                 0.0000
 Atom AN      X      Y      Z        X      Y      Z        X      Y      Z
   1  28     0.02  -0.15   0.04    -0.01   0.01   0.05     0.00  -0.01  -0.02
   2   7    -0.03  -0.12  -0.05     0.04   0.05   0.06     0.02  -0.06   0.02
   3   6    -0.00  -0.05  -0.04     0.04   0.06   0.06     0.01  -0.07   0.00
   4   7     0.02   0.07  -0.02     0.04   0.06   0.06     0.01  -0.07  -0.00
   5   6     0.05   0.18   0.02     0.01  -0.08   0.00     0.03   0.01   0.02
   6   6    -0.09   0.19   0.09     0.15  -0.16  -0.02    -0.05   0.04   0.05
   7   6    -0.09   0.05   0.05     0.12  -0.11  -0.01    -0.04  -0.02   0.04
   8   6    -0.11  -0.12   0.01     0.14   0.04   0.01    -0.05  -0.12   0.03
   9   6     0.00  -0.12  -0.09     0.05   0.08   0.07     0.02  -0.12  -0.03
  10   6    -0.00   0.09   0.00     0.06   0.14   0.10    -0.00  -0.11  -0.03
  11   6     0.01   0.02  -0.02     0.07   0.11   0.06    -0.01  -0.08   0.01
  12   6    -0.05  -0.07  -0.02     0.02   0.04   0.05     0.04  -0.03   0.02
  13   1     0.02   0.09   0.01    -0.01  -0.04  -0.01     0.01   0.02   0.01
  14   1     0.04   0.05  -0.01    -0.03  -0.02  -0.00     0.03   0.00   0.00
  15   1    -0.02   0.09   0.04     0.04  -0.09  -0.01    -0.01   0.04   0.02
  16   1    -0.06   0.05   0.04     0.08  -0.04  -0.00    -0.04   0.01   0.02
  17   1     0.00   0.02  -0.00     0.01  -0.04   0.00     0.01   0.00   0.00
  18   1    -0.05   0.02   0.03     0.06  -0.05  -0.01    -0.02   0.00   0.02
  19   1    -0.06  -0.04   0.03     0.07   0.02  -0.01    -0.03  -0.04   0.02
  20   1    -0.03  -0.06  -0.01     0.04   0.03   0.01    -0.01  -0.05   0.00
  21   1    -0.00  -0.07  -0.04     0.02   0.05   0.03     0.00  -0.05  -0.01
  22   1     0.03  -0.02  -0.04    -0.01   0.01   0.02     0.02  -0.03  -0.02
  23   1    -0.02   0.03   0.01     0.01   0.04   0.05     0.01  -0.04  -0.02
  24   1     0.01   0.05  -0.00     0.03   0.06   0.03    -0.01  -0.05  -0.01
  25   1    -0.00   0.01  -0.00     0.02   0.04   0.02    -0.01  -0.03   0.00
  26   1     0.02   0.00  -0.02     0.03   0.03   0.00    -0.01  -0.02   0.01
  27   1    -0.03  -0.02   0.01    -0.01   0.02   0.02     0.03  -0.01   0.01
  28   1    -0.01  -0.03  -0.01     0.01  -0.00   0.01     0.01   0.01   0.01
  29   7    -0.04  -0.08   0.09    -0.04  -0.02   0.07    -0.02   0.06  -0.01
  30   6    -0.01  -0.02   0.06    -0.05  -0.03   0.07    -0.01   0.06  -0.03
  31   7     0.02   0.07  -0.01    -0.05  -0.03   0.08    -0.01   0.06  -0.03
  32   6     0.05   0.16  -0.09    -0.01   0.07  -0.03    -0.03  -0.00   0.02
  33   6    -0.08   0.12  -0.17    -0.14   0.13  -0.09     0.05  -0.02   0.07
  34   6    -0.09   0.02  -0.07    -0.12   0.09  -0.06     0.03   0.03   0.03
  35   6    -0.12  -0.12   0.04    -0.14  -0.03   0.02     0.04   0.12  -0.02
  36   6    -0.01  -0.08   0.14    -0.05  -0.04   0.09    -0.01   0.09  -0.07
  37   6    -0.00   0.09  -0.05    -0.07  -0.08   0.14     0.01   0.09  -0.07
  38   6     0.00   0.03   0.01    -0.08  -0.07   0.09     0.01   0.08  -0.02
  39   6    -0.05  -0.05   0.04    -0.02  -0.02   0.06    -0.03   0.04   0.00
  40   1     0.03   0.08  -0.05     0.01   0.03  -0.02    -0.02  -0.01   0.02
  41   1     0.04   0.05  -0.00     0.02   0.02  -0.01    -0.03  -0.00   0.00
  42   1    -0.02   0.07  -0.08    -0.04   0.07  -0.05     0.01  -0.03   0.03
  43   1    -0.06   0.02  -0.07    -0.08   0.03  -0.02     0.04   0.00   0.02
  44   1     0.00   0.02  -0.00    -0.01   0.03  -0.02    -0.01   0.00   0.00
  45   1    -0.05  -0.00  -0.04    -0.05   0.04  -0.03     0.02   0.01   0.02
  46   1    -0.06  -0.05  -0.01    -0.07  -0.02  -0.00     0.03   0.04   0.01
  47   1    -0.04  -0.06   0.03    -0.04  -0.02   0.02     0.01   0.05  -0.02
  48   1    -0.01  -0.05   0.07    -0.02  -0.03   0.04    -0.00   0.04  -0.04
  49   1     0.02  -0.00   0.05     0.01  -0.00   0.02    -0.02   0.01  -0.03
  50   1    -0.02   0.03  -0.03    -0.01  -0.02   0.06    -0.01   0.02  -0.04
  51   1     0.01   0.04  -0.02    -0.03  -0.04   0.05     0.01   0.04  -0.03
  52   1    -0.01   0.01  -0.01    -0.02  -0.03   0.03     0.01   0.02  -0.01
  53   1     0.02   0.01   0.02    -0.03  -0.03   0.01     0.01   0.02   0.00
  54   1    -0.03  -0.02  -0.00     0.01  -0.01   0.03    -0.03   0.01  -0.00
  55   1    -0.01  -0.03   0.02    -0.01   0.01   0.00    -0.01   0.00   0.01
  56   6     0.09   0.02   0.15     0.03  -0.11  -0.09     0.20  -0.08  -0.00
  57   8     0.20   0.09   0.37     0.05  -0.36  -0.31     0.49  -0.30   0.14
  58   6     0.11  -0.05  -0.15    -0.02   0.06  -0.13    -0.20   0.07  -0.06
  59   8     0.24  -0.07  -0.37    -0.01   0.18  -0.44    -0.49   0.32  -0.05
                      7                      8                      9
                        a                      a                      a 
 Frequencies --    48.4285                49.7700                63.4870
 Red. masses --    15.2803                16.5563                17.1013
 Frc consts  --     0.0000                 0.0000                 0.0000
 IR Inten    --     0.0266                 0.1357                 0.9311
 Raman Activ --     0.0000                 0.0000                 0.0000
 Depolar     --     0.0000                 0.0000                 0.0000
 Atom AN      X      Y      Z        X      Y      Z        X      Y      Z
   1  28     0.01  -0.05  -0.24    -0.24  -0.22   0.04     0.11  -0.25   0.06
   2   7     0.08  -0.01  -0.05    -0.04   0.04   0.06     0.01  -0.13  -0.02
   3   6     0.09   0.03  -0.01    -0.02   0.07   0.07     0.05  -0.04  -0.02
   4   7     0.12   0.03   0.02    -0.03   0.08   0.08     0.06   0.06  -0.02
   5   6     0.08  -0.08   0.01    -0.06  -0.08   0.00     0.06   0.06  -0.05
   6   6     0.17  -0.11  -0.01     0.12  -0.14  -0.06     0.08   0.02  -0.04
   7   6     0.12  -0.03  -0.00     0.10  -0.03  -0.03     0.08  -0.01  -0.05
   8   6     0.12   0.09  -0.03     0.12   0.16  -0.00     0.08  -0.03  -0.04
   9   6     0.08   0.08   0.03     0.01   0.15   0.11     0.07  -0.03  -0.03
  10   6     0.15   0.07   0.04    -0.02   0.15   0.11     0.02   0.15   0.04
  11   6     0.17   0.01  -0.04    -0.00   0.09   0.06     0.04  -0.00  -0.01
  12   6     0.08  -0.04  -0.07    -0.07   0.02   0.05    -0.06  -0.14  -0.02
  13   1     0.02  -0.04   0.00    -0.03  -0.05  -0.01     0.01   0.02  -0.02
  14   1    -0.00  -0.02   0.01    -0.05  -0.02   0.01     0.02   0.01  -0.02
  15   1     0.05  -0.07  -0.00     0.03  -0.09  -0.03     0.02   0.01  -0.01
  16   1     0.08  -0.02  -0.01     0.08  -0.03  -0.03     0.02   0.01  -0.00
  17   1     0.01  -0.01   0.01    -0.01  -0.02   0.01     0.03  -0.00  -0.02
  18   1     0.04  -0.01  -0.00     0.05  -0.02  -0.02     0.02  -0.01  -0.01
  19   1     0.06   0.03  -0.03     0.07   0.05  -0.03     0.02  -0.01  -0.01
  20   1     0.03   0.05  -0.00     0.03   0.08   0.01     0.03  -0.01  -0.01
  21   1     0.02   0.04   0.01     0.01   0.07   0.05     0.02  -0.01  -0.00
  22   1     0.01   0.02   0.02    -0.02   0.03   0.05     0.02  -0.01  -0.01
  23   1     0.03   0.03   0.03    -0.02   0.05   0.05    -0.03   0.05   0.04
  24   1     0.06   0.04   0.02     0.01   0.07   0.03     0.03   0.08   0.01
  25   1     0.06   0.00  -0.01    -0.00   0.03   0.02    -0.00   0.01   0.00
  26   1     0.07  -0.00  -0.02     0.02   0.02   0.01     0.05  -0.01  -0.02
  27   1    -0.00  -0.01  -0.02    -0.04   0.01   0.02    -0.06  -0.03   0.00
  28   1     0.03  -0.03  -0.04    -0.02  -0.02   0.01    -0.02  -0.08  -0.01
  29   7    -0.08  -0.02  -0.06    -0.03   0.01  -0.08     0.00  -0.11   0.08
  30   6    -0.09  -0.03   0.00    -0.01   0.03  -0.10     0.04  -0.02   0.04
  31   7    -0.12  -0.02   0.03    -0.02   0.04  -0.11     0.06   0.06  -0.00
  32   6    -0.08   0.07  -0.03    -0.06  -0.07   0.03     0.06   0.08   0.03
  33   6    -0.17   0.09  -0.08     0.11  -0.10   0.12     0.07   0.04   0.03
  34   6    -0.12   0.03  -0.03     0.10  -0.01   0.05     0.08   0.01   0.06
  35   6    -0.13  -0.10   0.01     0.13   0.14  -0.06     0.08  -0.01   0.06
  36   6    -0.08  -0.07   0.05     0.02   0.09  -0.16     0.07  -0.02   0.05
  37   6    -0.15  -0.05   0.06    -0.00   0.08  -0.17     0.03   0.11  -0.10
  38   6    -0.17  -0.03  -0.04     0.00   0.06  -0.10     0.03   0.00   0.01
  39   6    -0.08   0.00  -0.09    -0.06  -0.01  -0.06    -0.07  -0.12   0.07
  40   1    -0.02   0.04  -0.02    -0.03  -0.04   0.03     0.01   0.03   0.01
  41   1     0.00   0.02   0.00    -0.05  -0.02  -0.00     0.02   0.02   0.02
  42   1    -0.05   0.06  -0.04     0.03  -0.07   0.07     0.02   0.01   0.01
  43   1    -0.08   0.02  -0.03     0.08  -0.01   0.04     0.02   0.01  -0.00
  44   1    -0.01   0.02   0.00    -0.00  -0.02   0.00     0.03   0.01   0.02
  45   1    -0.04   0.01  -0.01     0.05  -0.01   0.03     0.02  -0.00   0.01
  46   1    -0.06  -0.04  -0.02     0.07   0.06   0.01     0.02  -0.01   0.01
  47   1    -0.03  -0.05   0.02     0.04   0.07  -0.04     0.03  -0.01   0.02
  48   1    -0.02  -0.03   0.03     0.01   0.04  -0.08     0.02  -0.01   0.01
  49   1    -0.01  -0.01   0.03    -0.02   0.01  -0.06     0.02  -0.00   0.02
  50   1    -0.03  -0.01   0.03    -0.02   0.02  -0.07    -0.03   0.03  -0.06
  51   1    -0.06  -0.03   0.03     0.01   0.05  -0.06     0.03   0.07  -0.04
  52   1    -0.05  -0.01  -0.01     0.00   0.02  -0.04    -0.00   0.00  -0.01
  53   1    -0.07  -0.01  -0.02     0.02   0.02  -0.01     0.04   0.00   0.02
  54   1     0.00  -0.00  -0.02    -0.04   0.00  -0.03    -0.06  -0.03   0.01
  55   1    -0.02   0.01  -0.05    -0.02  -0.02  -0.00    -0.02  -0.07   0.04
  56   6     0.08   0.06   0.02    -0.03  -0.06   0.10    -0.13  -0.02   0.04
  57   8     0.19   0.23   0.31     0.09  -0.01   0.36    -0.45   0.28  -0.05
  58   6    -0.08  -0.04   0.04    -0.03  -0.10  -0.06    -0.13  -0.04  -0.04
  59   8    -0.21  -0.08   0.37     0.12  -0.17  -0.29    -0.45   0.27  -0.12
                     10                     11                     12
                        a                      a                      a 
 Frequencies --    73.0633                75.1474                86.8877
 Red. masses --    11.4471                10.1888                12.2958
 Frc consts  --     0.0000                 0.0000                 0.0000
 IR Inten    --     1.1715                 0.8319                 1.1272
 Raman Activ --     0.0000                 0.0000                 0.0000
 Depolar     --     0.0000                 0.0000                 0.0000
 Atom AN      X      Y      Z        X      Y      Z        X      Y      Z
   1  28     0.05   0.18  -0.04    -0.00   0.01   0.04     0.10  -0.19   0.05
   2   7    -0.08  -0.10  -0.16    -0.10   0.08  -0.10     0.04  -0.01  -0.05
   3   6    -0.05  -0.01  -0.07    -0.13   0.02  -0.04    -0.02  -0.11  -0.06
   4   7     0.01   0.04  -0.00    -0.11  -0.09  -0.01    -0.02  -0.25  -0.08
   5   6    -0.03  -0.06   0.03    -0.15  -0.17   0.06    -0.03  -0.17   0.02
   6   6     0.03  -0.12   0.04    -0.10  -0.12   0.00    -0.08   0.01  -0.09
   7   6    -0.07  -0.05   0.03    -0.20   0.08   0.04    -0.11   0.22  -0.03
   8   6    -0.08   0.07  -0.05    -0.21   0.20  -0.05    -0.13   0.14  -0.09
   9   6    -0.08   0.05  -0.03    -0.19   0.11   0.01    -0.04  -0.04  -0.02
  10   6     0.08   0.20   0.08     0.02   0.07   0.06     0.11   0.02   0.05
  11   6     0.13  -0.04  -0.12     0.06   0.11  -0.07     0.14   0.21  -0.03
  12   6    -0.12  -0.22  -0.21    -0.05   0.04  -0.12     0.10   0.09   0.00
  13   1    -0.00  -0.03   0.01    -0.03  -0.09   0.02    -0.00  -0.09   0.01
  14   1    -0.04  -0.02   0.01    -0.07  -0.04   0.04    -0.01  -0.04   0.05
  15   1     0.01  -0.07   0.02    -0.03  -0.07   0.02    -0.02   0.01  -0.01
  16   1     0.04  -0.02   0.00     0.00  -0.03  -0.04    -0.03  -0.01  -0.08
  17   1    -0.05  -0.02   0.02    -0.08   0.02   0.05    -0.01   0.08   0.04
  18   1    -0.02  -0.02   0.01    -0.06   0.04  -0.00    -0.05   0.11  -0.03
  19   1    -0.00   0.02  -0.04    -0.04   0.06  -0.06    -0.06   0.03  -0.07
  20   1    -0.04   0.05  -0.01    -0.08   0.10  -0.00    -0.04   0.07  -0.02
  21   1    -0.02   0.02  -0.01    -0.06   0.05  -0.00    -0.02  -0.02  -0.01
  22   1    -0.03   0.01   0.00    -0.06   0.03   0.04     0.01  -0.01   0.02
  23   1    -0.04   0.08   0.08     0.00   0.02   0.06     0.06  -0.01   0.08
  24   1     0.08   0.13   0.03     0.03   0.04   0.02     0.03   0.03  -0.00
  25   1     0.04  -0.01  -0.03     0.04   0.05  -0.01     0.07   0.11   0.02
  26   1     0.10  -0.03  -0.06     0.02   0.04  -0.05     0.02   0.08  -0.06
  27   1    -0.12  -0.04  -0.07    -0.04   0.02  -0.03     0.03   0.02   0.04
  28   1    -0.03  -0.14  -0.09    -0.01  -0.01  -0.06     0.03   0.04  -0.01
  29   7    -0.09  -0.03   0.18     0.11  -0.11  -0.06     0.03   0.01   0.05
  30   6    -0.05   0.02   0.06     0.13  -0.04  -0.02    -0.03  -0.08   0.11
  31   7     0.02   0.04  -0.02     0.11   0.07  -0.04    -0.04  -0.20   0.19
  32   6    -0.02  -0.06   0.00     0.15   0.18  -0.01    -0.03  -0.17   0.06
  33   6     0.04  -0.12   0.02     0.10   0.11  -0.05    -0.09   0.05   0.07
  34   6    -0.06  -0.06  -0.01     0.20  -0.05   0.08    -0.11   0.21  -0.08
  35   6    -0.07   0.08   0.01     0.21  -0.20   0.06    -0.14   0.16   0.01
  36   6    -0.07   0.05   0.00     0.19  -0.09   0.08    -0.05  -0.03   0.04
  37   6     0.09   0.14  -0.15    -0.03  -0.04   0.09     0.12  -0.00  -0.05
  38   6     0.12   0.01   0.14    -0.06  -0.13  -0.03     0.14   0.21  -0.06
  39   6    -0.14  -0.10   0.27     0.07  -0.08  -0.09     0.10   0.09  -0.04
  40   1    -0.00  -0.03   0.00     0.03   0.09  -0.02    -0.00  -0.09   0.04
  41   1    -0.03  -0.02  -0.00     0.07   0.06   0.03    -0.01  -0.06  -0.03
  42   1     0.01  -0.07   0.01     0.03   0.07  -0.02    -0.02   0.01   0.01
  43   1     0.05  -0.02   0.01    -0.00   0.01  -0.05    -0.04   0.03   0.07
  44   1    -0.04  -0.03  -0.01     0.07   0.01   0.06    -0.00   0.05  -0.07
  45   1    -0.02  -0.02  -0.00     0.06  -0.03   0.02    -0.05   0.12  -0.02
  46   1    -0.00   0.04   0.03     0.05  -0.08  -0.02    -0.07   0.06   0.04
  47   1    -0.04   0.04  -0.01     0.08  -0.09   0.05    -0.04   0.07  -0.02
  48   1    -0.02   0.02  -0.00     0.06  -0.04   0.03    -0.02  -0.01   0.02
  49   1    -0.02   0.01  -0.01     0.06  -0.01   0.05     0.01  -0.02  -0.02
  50   1    -0.03   0.03  -0.11    -0.01   0.01   0.07     0.06  -0.04  -0.06
  51   1     0.09   0.10  -0.07    -0.03  -0.04   0.04     0.04   0.03  -0.01
  52   1     0.04   0.00   0.04    -0.04  -0.05   0.00     0.08   0.09  -0.06
  53   1     0.10  -0.00   0.07    -0.02  -0.05  -0.03     0.02   0.10   0.02
  54   1    -0.13  -0.01   0.07     0.05  -0.03  -0.02     0.03   0.00  -0.04
  55   1    -0.04  -0.09   0.14     0.02  -0.01  -0.06     0.03   0.04  -0.00
  56   6     0.09   0.03  -0.03     0.05  -0.02   0.02     0.01  -0.08   0.02
  57   8     0.13  -0.11  -0.14     0.11  -0.07   0.05    -0.06   0.02   0.04
  58   6     0.08   0.05   0.02    -0.05   0.03   0.01     0.01  -0.08   0.02
  59   8     0.12  -0.03   0.19    -0.11   0.08   0.00    -0.05   0.00  -0.05
                     13                     14                     15
                        a                      a                      a 
 Frequencies --    93.7287               100.7843               116.4194
 Red. masses --     9.9782                16.2681                10.7452
 Frc consts  --     0.0000                 0.0000                 0.0000
 IR Inten    --     1.2194                 0.4481                 0.0450
 Raman Activ --     0.0000                 0.0000                 0.0000
 Depolar     --     0.0000                 0.0000                 0.0000
 Atom AN      X      Y      Z        X      Y      Z        X      Y      Z
   1  28     0.00  -0.00   0.01     0.08  -0.33   0.08    -0.01   0.04   0.15
   2   7    -0.06   0.14  -0.07     0.01   0.14  -0.16    -0.11  -0.25  -0.03
   3   6    -0.03   0.20  -0.01     0.00   0.13  -0.09    -0.04  -0.08   0.00
   4   7     0.01   0.28   0.06     0.06   0.15  -0.02    -0.02   0.04   0.03
   5   6    -0.03   0.12   0.02     0.01   0.03   0.01    -0.01   0.03  -0.02
   6   6     0.04  -0.10   0.15     0.03  -0.08   0.10     0.03  -0.00  -0.02
   7   6    -0.03  -0.22   0.08    -0.09  -0.09   0.06     0.03  -0.02  -0.03
   8   6    -0.02  -0.01   0.06    -0.09   0.06  -0.02     0.03  -0.02  -0.02
   9   6    -0.09   0.16  -0.01    -0.09   0.13  -0.08     0.02  -0.05   0.01
  10   6    -0.07  -0.07  -0.13     0.06  -0.11  -0.16    -0.06   0.18   0.11
  11   6    -0.09  -0.20  -0.07     0.05  -0.07  -0.13    -0.02  -0.17  -0.02
  12   6    -0.05   0.01  -0.14     0.09   0.10  -0.18    -0.22  -0.35  -0.08
  13   1    -0.00   0.06   0.01     0.02   0.02   0.01    -0.01   0.01  -0.01
  14   1    -0.03   0.02  -0.04    -0.02   0.00  -0.02    -0.00   0.01  -0.01
  15   1     0.01  -0.06   0.04     0.01  -0.06   0.04     0.01  -0.01  -0.01
  16   1     0.05  -0.01   0.08     0.04  -0.01   0.04     0.02   0.00   0.00
  17   1    -0.06  -0.08  -0.01    -0.06  -0.04   0.01     0.01  -0.01  -0.01
  18   1     0.02  -0.12   0.05    -0.02  -0.05   0.03     0.01  -0.01  -0.01
  19   1     0.04   0.01   0.03     0.01   0.03  -0.02     0.01  -0.01  -0.01
  20   1    -0.03  -0.01   0.01    -0.05   0.03  -0.01     0.01   0.00  -0.00
  21   1    -0.03   0.07  -0.01    -0.04   0.05  -0.04     0.01  -0.02   0.01
  22   1    -0.05   0.04  -0.02    -0.04   0.03  -0.02     0.01  -0.01   0.01
  23   1    -0.02  -0.01  -0.12     0.04  -0.04  -0.11    -0.11   0.08   0.09
  24   1    -0.03  -0.07  -0.01     0.00  -0.09  -0.02     0.05   0.13   0.03
  25   1    -0.04  -0.11  -0.05     0.02  -0.05  -0.06    -0.03  -0.06  -0.01
  26   1    -0.02  -0.07   0.04    -0.00  -0.02  -0.00     0.07  -0.07  -0.01
  27   1     0.00   0.00  -0.08     0.06   0.02  -0.07    -0.14  -0.08  -0.03
  28   1    -0.02   0.01  -0.03     0.03   0.06  -0.05    -0.06  -0.17  -0.04
  29   7     0.06  -0.15   0.00    -0.00   0.20   0.08     0.12   0.21  -0.13
  30   6     0.03  -0.17   0.08    -0.00   0.16   0.02     0.04   0.08  -0.03
  31   7    -0.02  -0.22   0.17     0.06   0.15  -0.04     0.02  -0.03   0.04
  32   6     0.03  -0.10   0.07     0.01   0.03  -0.03     0.01  -0.04  -0.00
  33   6    -0.05   0.15   0.08     0.03  -0.12  -0.05    -0.03  -0.01  -0.02
  34   6     0.03   0.23  -0.02    -0.09  -0.12  -0.02    -0.03   0.00  -0.03
  35   6     0.01   0.04   0.05    -0.09   0.07  -0.02    -0.03   0.00  -0.03
  36   6     0.08  -0.15   0.07    -0.09   0.15   0.00    -0.02   0.05  -0.01
  37   6     0.08   0.01  -0.13     0.04  -0.03   0.21     0.04  -0.12   0.18
  38   6     0.10   0.14  -0.14     0.04  -0.01   0.16     0.03   0.15  -0.10
  39   6     0.06  -0.06  -0.12     0.08   0.17   0.13     0.24   0.28  -0.21
  40   1     0.00  -0.05   0.04     0.02   0.01  -0.02     0.01  -0.01  -0.00
  41   1     0.03  -0.03  -0.02    -0.02   0.01   0.01     0.01  -0.01  -0.01
  42   1    -0.01   0.07   0.01     0.01  -0.07  -0.01    -0.01   0.00  -0.01
  43   1    -0.05   0.04   0.06     0.04  -0.03  -0.02    -0.02  -0.00   0.00
  44   1     0.06   0.07  -0.04    -0.06  -0.04   0.00    -0.01   0.00  -0.01
  45   1    -0.02   0.12  -0.01    -0.02  -0.06  -0.01    -0.01   0.01  -0.01
  46   1    -0.04   0.00   0.03     0.01   0.03   0.00    -0.01  -0.00  -0.02
  47   1     0.03   0.02   0.01    -0.06   0.03  -0.01    -0.01  -0.01  -0.00
  48   1     0.03  -0.06   0.02    -0.04   0.07   0.01    -0.01   0.02   0.00
  49   1     0.05  -0.04   0.00    -0.04   0.04  -0.00    -0.01   0.01  -0.00
  50   1     0.03  -0.04  -0.10     0.03   0.02   0.12     0.10  -0.03   0.12
  51   1     0.03   0.06  -0.03    -0.01  -0.07   0.06    -0.05  -0.11   0.08
  52   1     0.05   0.07  -0.09     0.01  -0.02   0.08     0.03   0.05  -0.03
  53   1     0.02   0.08   0.01    -0.01  -0.02   0.01    -0.07   0.06  -0.05
  54   1     0.01  -0.04  -0.07     0.06   0.05   0.06     0.15   0.06  -0.05
  55   1     0.02  -0.02  -0.03     0.02   0.08   0.03     0.06   0.14  -0.11
  56   6     0.03  -0.01   0.01     0.00  -0.18  -0.00    -0.05   0.01   0.02
  57   8     0.03  -0.01   0.01    -0.10   0.03   0.10    -0.00  -0.06   0.04
  58   6    -0.03   0.01   0.01    -0.00  -0.17   0.08     0.05   0.01   0.03
  59   8    -0.03   0.01   0.00    -0.09  -0.02  -0.11    -0.00   0.07   0.01
                     16                     17                     18
                        a                      a                      a 
 Frequencies --   164.6576               173.6945               175.2139
 Red. masses --    36.8149                 9.7894                 9.4400
 Frc consts  --     0.0000                 0.0000                 0.0000
 IR Inten    --     0.3550                 2.9417                 1.2757
 Raman Activ --     0.0000                 0.0000                 0.0000
 Depolar     --     0.0000                 0.0000                 0.0000
 Atom AN      X      Y      Z        X      Y      Z        X      Y      Z
   1  28     0.72  -0.12   0.06     0.12  -0.05   0.04     0.01  -0.03  -0.13
   2   7    -0.05   0.01   0.08     0.04   0.21  -0.01     0.03   0.18  -0.00
   3   6    -0.05   0.01   0.06     0.00   0.13   0.04    -0.01   0.12   0.06
   4   7    -0.08   0.04   0.05    -0.07  -0.19  -0.06    -0.08  -0.18  -0.04
   5   6    -0.08  -0.01   0.01    -0.06  -0.06   0.03    -0.07  -0.06   0.04
   6   6    -0.04  -0.08   0.04    -0.18   0.13  -0.05    -0.18   0.14  -0.06
   7   6    -0.08  -0.01   0.06     0.08  -0.05  -0.04     0.10  -0.05  -0.05
   8   6    -0.07   0.08   0.04     0.11  -0.16   0.17     0.13  -0.16   0.18
   9   6    -0.04   0.03   0.06    -0.06   0.14   0.07    -0.06   0.14   0.09
  10   6    -0.14   0.04   0.05     0.03   0.04   0.06     0.01   0.04   0.07
  11   6    -0.16   0.02   0.08     0.06  -0.03  -0.06     0.05  -0.02  -0.05
  12   6    -0.11   0.03   0.10    -0.04  -0.03  -0.13    -0.05  -0.03  -0.11
  13   1    -0.03   0.01   0.00    -0.01  -0.05   0.01    -0.02  -0.06   0.01
  14   1    -0.03  -0.01  -0.01    -0.01  -0.00   0.05    -0.02  -0.00   0.06
  15   1    -0.01  -0.05   0.02    -0.05   0.14  -0.05    -0.05   0.14  -0.05
  16   1     0.02  -0.02   0.01    -0.15   0.01   0.00    -0.15   0.01   0.00
  17   1    -0.04  -0.01   0.03     0.05  -0.01  -0.06     0.06  -0.01  -0.06
  18   1    -0.01  -0.01   0.01     0.04  -0.03  -0.01     0.05  -0.03  -0.01
  19   1    -0.01   0.03  -0.02     0.03  -0.04   0.15     0.04  -0.04   0.16
  20   1    -0.03   0.05   0.02     0.07  -0.14   0.03     0.08  -0.14   0.03
  21   1    -0.01  -0.01   0.02    -0.02   0.09   0.03    -0.02   0.10   0.04
  22   1     0.00   0.01   0.02    -0.08   0.01   0.01    -0.08   0.01   0.01
  23   1    -0.05   0.01   0.01    -0.02   0.02   0.08    -0.02   0.02   0.08
  24   1    -0.04   0.02   0.01     0.04   0.06   0.01     0.04   0.06   0.02
  25   1    -0.05  -0.00   0.02     0.03  -0.02  -0.02     0.03  -0.01  -0.02
  26   1    -0.05   0.00   0.03     0.04  -0.01  -0.02     0.03  -0.01  -0.02
  27   1    -0.03   0.01   0.03    -0.07   0.01  -0.08    -0.06   0.01  -0.07
  28   1    -0.04   0.01   0.04    -0.01  -0.07  -0.04    -0.01  -0.06  -0.04
  29   7    -0.05  -0.03  -0.08     0.04   0.18  -0.09    -0.03  -0.17   0.08
  30   6    -0.05  -0.02  -0.06     0.00   0.09  -0.10    -0.00  -0.08   0.11
  31   7    -0.08   0.02  -0.07    -0.09  -0.14   0.12     0.09   0.15  -0.11
  32   6    -0.08  -0.02  -0.01    -0.07  -0.07  -0.01     0.07   0.08   0.02
  33   6    -0.04  -0.09  -0.01    -0.18   0.13  -0.03     0.18  -0.15   0.03
  34   6    -0.07  -0.04  -0.05     0.07  -0.03   0.07    -0.09   0.02  -0.07
  35   6    -0.06   0.06  -0.08     0.12  -0.21  -0.08    -0.14   0.23   0.08
  36   6    -0.03  -0.00  -0.07    -0.05   0.09  -0.14     0.05  -0.08   0.15
  37   6    -0.14   0.01  -0.07     0.02   0.01  -0.07    -0.02   0.00   0.08
  38   6    -0.15  -0.03  -0.10     0.04  -0.00   0.06    -0.05   0.00  -0.06
  39   6    -0.10  -0.02  -0.11    -0.06   0.03   0.11     0.06  -0.02  -0.11
  40   1    -0.03   0.00  -0.01    -0.02  -0.05   0.01     0.02   0.06  -0.01
  41   1    -0.03  -0.00   0.01    -0.01  -0.03  -0.05     0.01   0.03   0.05
  42   1    -0.01  -0.06   0.01    -0.05   0.14  -0.02     0.05  -0.15   0.02
  43   1     0.02  -0.02  -0.00    -0.15   0.01  -0.02     0.15  -0.01   0.02
  44   1    -0.04  -0.02  -0.03     0.04   0.01   0.06    -0.05  -0.02  -0.07
  45   1    -0.01  -0.01  -0.01     0.04  -0.02   0.03    -0.04   0.02  -0.03
  46   1    -0.01   0.03   0.00     0.04  -0.10  -0.12    -0.05   0.11   0.12
  47   1    -0.03   0.04  -0.04     0.07  -0.13   0.04    -0.08   0.14  -0.04
  48   1    -0.01  -0.01  -0.01    -0.02   0.07  -0.07     0.01  -0.07   0.08
  49   1     0.01   0.00  -0.03    -0.08   0.01  -0.02     0.08  -0.01   0.02
  50   1    -0.05   0.01  -0.02    -0.02  -0.02  -0.08     0.02   0.02   0.08
  51   1    -0.04   0.01  -0.02     0.04   0.05  -0.04    -0.04  -0.05   0.04
  52   1    -0.05  -0.01  -0.02     0.02  -0.00   0.03    -0.02   0.00  -0.02
  53   1    -0.04  -0.01  -0.03     0.03  -0.01   0.02    -0.03   0.00  -0.02
  54   1    -0.03  -0.01  -0.03    -0.07   0.04   0.05     0.07  -0.04  -0.05
  55   1    -0.03  -0.01  -0.05    -0.02  -0.04   0.06     0.02   0.04  -0.06
  56   6     0.14  -0.03  -0.04     0.02  -0.12  -0.08     0.07  -0.01  -0.02
  57   8     0.05   0.13  -0.05     0.00   0.05   0.06     0.02   0.05  -0.04
  58   6     0.14  -0.00   0.07     0.02  -0.06   0.14    -0.06  -0.00  -0.02
  59   8     0.05   0.14  -0.01     0.01   0.03  -0.07    -0.02  -0.06  -0.01
                     19                     20                     21
                        a                      a                      a 
 Frequencies --   178.1803               221.2133               232.1188
 Red. masses --    29.9172                15.1508                 9.5430
 Frc consts  --     0.0000                 0.0000                 0.0000
 IR Inten    --     0.4558                 4.2148                 0.0153
 Raman Activ --     0.0000                 0.0000                 0.0000
 Depolar     --     0.0000                 0.0000                 0.0000
 Atom AN      X      Y      Z        X      Y      Z        X      Y      Z
   1  28    -0.04   0.14   0.61    -0.19   0.20  -0.06     0.00  -0.01  -0.08
   2   7     0.07   0.06  -0.10     0.05   0.07   0.07    -0.12  -0.25  -0.10
   3   6     0.06   0.03  -0.09     0.02  -0.02  -0.00    -0.05  -0.06   0.01
   4   7     0.09  -0.04  -0.08     0.03   0.01   0.00    -0.05  -0.01   0.03
   5   6     0.09   0.00  -0.01     0.02  -0.03  -0.02    -0.01   0.09   0.03
   6   6     0.02   0.05  -0.01     0.05  -0.05  -0.01    -0.03   0.08   0.05
   7   6     0.02  -0.00  -0.03    -0.04   0.07   0.01     0.07  -0.13  -0.00
   8   6     0.01  -0.05  -0.05    -0.06  -0.02  -0.05     0.10   0.07   0.04
   9   6     0.01   0.01  -0.09     0.04  -0.11  -0.07    -0.03   0.11   0.12
  10   6     0.16  -0.04  -0.08    -0.01   0.06   0.04    -0.01  -0.14  -0.06
  11   6     0.17  -0.01  -0.11    -0.02  -0.12   0.07     0.00   0.24  -0.09
  12   6     0.12  -0.00  -0.14     0.00  -0.01   0.03    -0.04  -0.04   0.01
  13   1     0.03  -0.00   0.00     0.01  -0.00  -0.01    -0.01   0.04   0.01
  14   1     0.03   0.00   0.01     0.01  -0.01  -0.01     0.01   0.02   0.00
  15   1     0.01   0.04   0.00     0.01  -0.05   0.01    -0.01   0.06  -0.01
  16   1    -0.01   0.01  -0.00     0.05  -0.01  -0.02    -0.05   0.02   0.05
  17   1     0.02   0.00  -0.02     0.01   0.03   0.04    -0.02  -0.06  -0.06
  18   1    -0.00  -0.00  -0.00    -0.03   0.05  -0.01     0.06  -0.10   0.02
  19   1     0.00  -0.01   0.01    -0.04  -0.01  -0.03     0.07   0.03   0.00
  20   1     0.00  -0.03  -0.02    -0.02   0.00  -0.01     0.02   0.04   0.02
  21   1    -0.00   0.02  -0.03     0.02  -0.07  -0.02    -0.01   0.08   0.05
  22   1    -0.01  -0.00  -0.03     0.05  -0.01  -0.04    -0.04   0.01   0.06
  23   1     0.06  -0.02  -0.03    -0.04   0.03   0.03     0.08  -0.07  -0.05
  24   1     0.05  -0.02  -0.02     0.02   0.05   0.01    -0.05  -0.11  -0.01
  25   1     0.06  -0.00  -0.03    -0.03  -0.08  -0.01     0.05   0.17   0.03
  26   1     0.05  -0.00  -0.04     0.02  -0.05   0.07    -0.04   0.11  -0.14
  27   1     0.02   0.00  -0.05    -0.00   0.00  -0.02    -0.01  -0.02   0.07
  28   1     0.04  -0.01  -0.05    -0.00  -0.01   0.02    -0.01   0.01  -0.02
  29   7    -0.07  -0.11  -0.06     0.06   0.03  -0.09     0.13   0.18  -0.19
  30   6    -0.05  -0.07  -0.07     0.02  -0.01   0.01     0.05   0.06  -0.01
  31   7    -0.08   0.01  -0.10     0.03   0.01  -0.00     0.05   0.02   0.02
  32   6    -0.08  -0.00  -0.02     0.02  -0.01   0.03     0.01  -0.07   0.06
  33   6    -0.01  -0.06   0.01     0.04  -0.04   0.03     0.02  -0.05   0.08
  34   6    -0.03  -0.01  -0.04    -0.03   0.06  -0.04    -0.06   0.11  -0.06
  35   6    -0.02   0.04  -0.06    -0.06   0.01   0.05    -0.10  -0.04   0.06
  36   6     0.00  -0.06  -0.07     0.03  -0.07   0.11     0.02  -0.05   0.15
  37   6    -0.16  -0.00  -0.10    -0.01   0.03  -0.06     0.01   0.09  -0.11
  38   6    -0.17  -0.05  -0.13    -0.01  -0.14  -0.01    -0.00  -0.25   0.02
  39   6    -0.10  -0.06  -0.15     0.01  -0.02  -0.02     0.03   0.04  -0.00
  40   1    -0.03   0.01  -0.00     0.01   0.00   0.01     0.00  -0.03   0.02
  41   1    -0.03   0.00   0.01     0.00  -0.00   0.02    -0.02  -0.02   0.01
  42   1    -0.00  -0.04   0.02     0.01  -0.05   0.01     0.01  -0.06   0.02
  43   1     0.03  -0.01   0.00     0.04   0.00   0.03     0.04   0.01   0.06
  44   1    -0.02  -0.01  -0.02     0.01   0.01  -0.05     0.03   0.02  -0.08
  45   1     0.00   0.00  -0.00    -0.03   0.05  -0.02    -0.05   0.10  -0.03
  46   1    -0.00   0.02   0.01    -0.04   0.00   0.03    -0.07  -0.03   0.01
  47   1    -0.01   0.03  -0.04    -0.02   0.01   0.01    -0.02  -0.03   0.03
  48   1     0.01  -0.04  -0.02     0.01  -0.05   0.05     0.00  -0.05   0.08
  49   1     0.02  -0.01  -0.02     0.04   0.00   0.04     0.04   0.02   0.07
  50   1    -0.05   0.00  -0.03    -0.04   0.01  -0.04    -0.07   0.03  -0.08
  51   1    -0.05   0.01  -0.03     0.02   0.04  -0.03     0.05   0.09  -0.05
  52   1    -0.06  -0.02  -0.04    -0.03  -0.07   0.04    -0.05  -0.13   0.10
  53   1    -0.05  -0.02  -0.04     0.02  -0.08  -0.04     0.05  -0.15  -0.07
  54   1    -0.01  -0.03  -0.05    -0.00   0.01   0.02     0.00   0.05   0.05
  55   1    -0.03  -0.01  -0.06     0.00  -0.02  -0.01     0.01  -0.01  -0.01
  56   6    -0.12  -0.01   0.16     0.08  -0.36  -0.39    -0.20  -0.01  -0.10
  57   8    -0.09  -0.16   0.10     0.04   0.21   0.09     0.01  -0.10   0.13
  58   6     0.10   0.09   0.14     0.04  -0.15   0.51     0.22  -0.04  -0.06
  59   8     0.09   0.19   0.03     0.05   0.15  -0.17    -0.02   0.15   0.07
                     22                     23                     24
                        a                      a                      a 
 Frequencies --   236.9551               249.3820               250.4960
 Red. masses --    10.3284                 9.0347                 8.8803
 Frc consts  --     0.0000                 0.0000                 0.0000
 IR Inten    --     0.0083                 6.4883                 1.1524
 Raman Activ --     0.0000                 0.0000                 0.0000
 Depolar     --     0.0000                 0.0000                 0.0000
 Atom AN      X      Y      Z        X      Y      Z        X      Y      Z
   1  28    -0.07   0.11  -0.03     0.08  -0.03   0.01     0.00   0.01   0.03
   2   7    -0.13  -0.26  -0.10    -0.16  -0.07  -0.08     0.14   0.08   0.07
   3   6    -0.06  -0.07   0.01    -0.11   0.03   0.02     0.10  -0.03  -0.02
   4   7    -0.04  -0.00   0.05    -0.03   0.29   0.17     0.03  -0.26  -0.15
   5   6    -0.01   0.08   0.04    -0.16  -0.11   0.13     0.14   0.08  -0.11
   6   6    -0.00   0.06   0.05     0.08  -0.01  -0.10    -0.07   0.00   0.09
   7   6     0.08  -0.10   0.01     0.10   0.21  -0.02    -0.09  -0.18   0.02
   8   6     0.10   0.05   0.02     0.05  -0.22   0.01    -0.04   0.19  -0.00
   9   6    -0.00   0.06   0.09    -0.05  -0.08  -0.04     0.05   0.07   0.03
  10   6     0.01  -0.15  -0.05     0.04  -0.02  -0.00    -0.03   0.03   0.01
  11   6     0.02   0.22  -0.09     0.04  -0.00  -0.02    -0.04  -0.01   0.02
  12   6    -0.03  -0.06   0.01     0.03   0.04  -0.05    -0.03  -0.04   0.04
  13   1    -0.01   0.03   0.01    -0.05  -0.15   0.02     0.05   0.13  -0.02
  14   1     0.01   0.02   0.01    -0.13  -0.01   0.11     0.12   0.00  -0.10
  15   1    -0.00   0.04  -0.01     0.02  -0.05  -0.04    -0.02   0.04   0.04
  16   1    -0.03   0.01   0.05     0.06   0.00  -0.07    -0.05  -0.00   0.06
  17   1    -0.01  -0.04  -0.04     0.13   0.10   0.06    -0.11  -0.08  -0.05
  18   1     0.05  -0.07   0.02    -0.04   0.16  -0.03     0.03  -0.14   0.03
  19   1     0.06   0.02  -0.01    -0.05  -0.08   0.09     0.04   0.07  -0.08
  20   1     0.02   0.04   0.01     0.06  -0.15  -0.02    -0.06   0.13   0.01
  21   1     0.00   0.04   0.04    -0.00  -0.01   0.01     0.01   0.01  -0.01
  22   1    -0.02   0.01   0.05    -0.05  -0.03  -0.04     0.04   0.03   0.04
  23   1     0.09  -0.07  -0.06     0.04  -0.01  -0.07    -0.04   0.01   0.07
  24   1    -0.05  -0.12  -0.01     0.00  -0.07   0.03     0.00   0.07  -0.03
  25   1     0.05   0.17   0.03     0.02  -0.01  -0.01    -0.02  -0.00   0.01
  26   1    -0.04   0.10  -0.14     0.01  -0.00  -0.00    -0.00  -0.01   0.01
  27   1    -0.01  -0.03   0.07     0.05  -0.00   0.01    -0.04   0.00  -0.01
  28   1    -0.00  -0.00  -0.02     0.01   0.06  -0.04    -0.01  -0.05   0.03
  29   7    -0.15  -0.20   0.20    -0.15  -0.03   0.08    -0.17  -0.05   0.09
  30   6    -0.06  -0.08   0.01    -0.09   0.02  -0.04    -0.11   0.02  -0.04
  31   7    -0.04  -0.02  -0.04    -0.01   0.16  -0.25    -0.01   0.19  -0.28
  32   6    -0.01   0.05  -0.08    -0.13  -0.14  -0.07    -0.15  -0.14  -0.09
  33   6     0.00   0.03  -0.08     0.06   0.03   0.09     0.08   0.04   0.10
  34   6     0.08  -0.10   0.04     0.10   0.18  -0.06     0.11   0.20  -0.06
  35   6     0.10   0.04  -0.04     0.04  -0.18   0.08     0.05  -0.20   0.09
  36   6     0.01   0.02  -0.11    -0.04  -0.05   0.06    -0.06  -0.05   0.06
  37   6     0.00  -0.12   0.12     0.03  -0.01   0.01     0.03  -0.02   0.03
  38   6     0.02   0.25  -0.02     0.04   0.01   0.03     0.04   0.03   0.02
  39   6    -0.04  -0.06   0.02     0.03   0.05   0.02     0.03   0.05   0.02
  40   1    -0.00   0.03  -0.03    -0.05  -0.13   0.03    -0.06  -0.14   0.04
  41   1     0.01   0.02  -0.02    -0.11  -0.05  -0.10    -0.12  -0.05  -0.11
  42   1    -0.00   0.04  -0.01     0.01  -0.02   0.05     0.02  -0.02   0.06
  43   1    -0.02  -0.01  -0.05     0.05   0.03   0.06     0.05   0.03   0.07
  44   1    -0.01  -0.02   0.06     0.12   0.06  -0.08     0.13   0.06  -0.08
  45   1     0.05  -0.08   0.02    -0.03   0.14  -0.04    -0.03   0.15  -0.04
  46   1     0.06   0.03   0.00    -0.04  -0.10  -0.05    -0.04  -0.11  -0.05
  47   1     0.02   0.03  -0.03     0.05  -0.11   0.08     0.06  -0.12   0.08
  48   1     0.01   0.02  -0.06    -0.00  -0.01  -0.01    -0.01  -0.01  -0.01
  49   1    -0.02  -0.01  -0.05    -0.04  -0.01   0.04    -0.05  -0.01   0.05
  50   1     0.08  -0.04   0.09     0.03   0.02   0.06     0.04   0.02   0.08
  51   1    -0.05  -0.11   0.05     0.00  -0.07   0.00    -0.00  -0.09   0.01
  52   1     0.06   0.14  -0.10     0.02  -0.00   0.01     0.02   0.01   0.01
  53   1    -0.05   0.16   0.08     0.00  -0.00   0.00    -0.00   0.01   0.00
  54   1    -0.01  -0.06  -0.05     0.05  -0.00  -0.00     0.05  -0.01  -0.01
  55   1    -0.01   0.01   0.02     0.01   0.06   0.01     0.01   0.07   0.01
  56   6     0.11  -0.17  -0.17     0.03   0.00   0.01     0.05  -0.01   0.02
  57   8     0.03   0.14  -0.00     0.00   0.02  -0.02    -0.00   0.03  -0.03
  58   6     0.08  -0.08   0.24     0.04  -0.00  -0.00    -0.05   0.01   0.01
  59   8     0.04   0.12  -0.06     0.00   0.03   0.01     0.00  -0.03  -0.02
                     25                     26                     27
                        a                      a                      a 
 Frequencies --   260.7578               289.2740               291.3610
 Red. masses --    14.2455                 8.3488                 8.3397
 Frc consts  --     0.0000                 0.0000                 0.0000
 IR Inten    --     2.7482                 0.9305                 1.1511
 Raman Activ --     0.0000                 0.0000                 0.0000
 Depolar     --     0.0000                 0.0000                 0.0000
 Atom AN      X      Y      Z        X      Y      Z        X      Y      Z
   1  28     0.01  -0.05  -0.20     0.07  -0.00   0.00     0.00   0.00   0.00
   2   7     0.08   0.12   0.04    -0.10  -0.06  -0.04     0.09   0.03   0.03
   3   6     0.04   0.04   0.00    -0.12  -0.11   0.02     0.12   0.10  -0.02
   4   7     0.02  -0.01  -0.03    -0.03   0.02   0.14     0.03  -0.03  -0.14
   5   6     0.01  -0.03  -0.03    -0.00   0.08   0.04     0.00  -0.08  -0.04
   6   6    -0.02  -0.02  -0.03    -0.00   0.18  -0.07    -0.01  -0.17   0.07
   7   6    -0.04   0.03  -0.02     0.00  -0.13  -0.19     0.00   0.13   0.19
   8   6    -0.04  -0.01   0.01     0.01   0.05  -0.18    -0.01  -0.04   0.19
   9   6    -0.03   0.01  -0.00    -0.16  -0.04   0.05     0.16   0.05  -0.04
  10   6    -0.03   0.09   0.04     0.04   0.05   0.15    -0.05  -0.03  -0.14
  11   6    -0.04  -0.11   0.07     0.08  -0.16   0.08    -0.09   0.13  -0.09
  12   6     0.03   0.07   0.03     0.16   0.10   0.01    -0.15  -0.11  -0.01
  13   1     0.00  -0.01  -0.01    -0.02  -0.00  -0.01     0.02   0.01   0.01
  14   1    -0.00  -0.01  -0.01     0.01   0.03   0.04    -0.01  -0.03  -0.05
  15   1    -0.00  -0.01   0.00     0.00   0.10  -0.04    -0.00  -0.10   0.03
  16   1    -0.00  -0.01  -0.02    -0.06   0.04   0.01     0.05  -0.04  -0.01
  17   1    -0.01   0.01   0.00    -0.05  -0.06  -0.14     0.04   0.06   0.14
  18   1    -0.01   0.02  -0.01     0.02  -0.12  -0.00    -0.02   0.12   0.00
  19   1    -0.02  -0.00   0.02     0.04   0.02  -0.11    -0.04  -0.02   0.12
  20   1    -0.00  -0.01   0.00     0.01   0.09  -0.03    -0.00  -0.08   0.03
  21   1    -0.01   0.01  -0.01    -0.04   0.04   0.04     0.04  -0.04  -0.04
  22   1    -0.01  -0.00   0.00    -0.08  -0.03   0.04     0.08   0.03  -0.04
  23   1    -0.06   0.04   0.04    -0.03   0.03   0.06     0.01  -0.02  -0.05
  24   1     0.02   0.07   0.00     0.05   0.04   0.06    -0.05  -0.02  -0.05
  25   1    -0.04  -0.09  -0.02     0.01  -0.12  -0.02    -0.02   0.11   0.02
  26   1     0.01  -0.05   0.09     0.04  -0.07   0.11    -0.03   0.06  -0.11
  27   1     0.03   0.02  -0.02     0.15   0.00   0.01    -0.14  -0.01  -0.01
  28   1     0.00   0.03   0.03     0.04   0.14  -0.01    -0.04  -0.12   0.01
  29   7    -0.09  -0.09   0.08    -0.10  -0.03   0.05    -0.10  -0.02   0.04
  30   6    -0.04  -0.03   0.02    -0.12  -0.10   0.02    -0.13  -0.10   0.02
  31   7    -0.02  -0.00  -0.03    -0.02  -0.04  -0.13    -0.01  -0.04  -0.15
  32   6    -0.01   0.01  -0.05     0.00   0.05  -0.07     0.00   0.05  -0.07
  33   6     0.02   0.00  -0.03    -0.00   0.18  -0.01     0.01   0.19  -0.01
  34   6     0.04  -0.03  -0.00    -0.02  -0.04   0.22    -0.02  -0.03   0.23
  35   6     0.04   0.01   0.01     0.00   0.12   0.14    -0.00   0.13   0.16
  36   6     0.03  -0.01   0.00    -0.15  -0.06  -0.04    -0.16  -0.07  -0.03
  37   6     0.02  -0.06   0.08     0.05  -0.02  -0.14     0.07  -0.04  -0.14
  38   6     0.04   0.13   0.02     0.08  -0.17   0.00     0.09  -0.16  -0.01
  39   6    -0.04  -0.05   0.06     0.15   0.09  -0.03     0.16   0.10  -0.04
  40   1    -0.00   0.01  -0.01    -0.02  -0.00   0.01    -0.03  -0.00   0.01
  41   1     0.00   0.00  -0.01     0.02   0.01  -0.05     0.02   0.01  -0.06
  42   1     0.00   0.01   0.00     0.00   0.10  -0.01     0.00   0.11  -0.01
  43   1     0.01  -0.00  -0.02    -0.05   0.03  -0.03    -0.05   0.03  -0.03
  44   1     0.00  -0.01   0.01    -0.06   0.00   0.14    -0.06   0.01   0.15
  45   1     0.02  -0.02  -0.00     0.02  -0.11   0.06     0.02  -0.11   0.06
  46   1     0.02   0.01   0.01     0.03   0.07   0.09     0.03   0.07   0.10
  47   1     0.00   0.01  -0.00     0.01   0.09  -0.01     0.00   0.09  -0.01
  48   1     0.02  -0.01  -0.01    -0.03   0.02  -0.06    -0.04   0.02  -0.06
  49   1     0.01   0.00   0.00    -0.08  -0.05  -0.03    -0.08  -0.05  -0.03
  50   1     0.05  -0.02   0.06    -0.02  -0.00  -0.07    -0.01  -0.01  -0.05
  51   1    -0.02  -0.06   0.03     0.06   0.01  -0.06     0.05  -0.00  -0.06
  52   1     0.04   0.07  -0.05     0.00  -0.09   0.07     0.01  -0.09   0.07
  53   1    -0.01   0.09   0.06     0.04  -0.11  -0.06     0.04  -0.10  -0.07
  54   1    -0.03  -0.03  -0.01     0.14  -0.00   0.00     0.14   0.00  -0.00
  55   1    -0.01  -0.02   0.04     0.05   0.12  -0.05     0.05   0.12  -0.04
  56   6    -0.45  -0.02  -0.20     0.02  -0.01  -0.01    -0.05  -0.01  -0.02
  57   8    -0.02  -0.22   0.28     0.01   0.01  -0.00    -0.01  -0.02   0.02
  58   6     0.46  -0.06  -0.15     0.01  -0.00   0.02     0.05  -0.00  -0.02
  59   8     0.00   0.32   0.15     0.01   0.01  -0.00     0.01   0.03   0.02
                     28                     29                     30
                        a                      a                      a 
 Frequencies --   318.4978               353.4160               354.3094
 Red. masses --    21.7003                10.1970                 9.6698
 Frc consts  --     0.0000                 0.0000                 0.0000
 IR Inten    --     1.9158                 1.0164                 0.1842
 Raman Activ --     0.0000                 0.0000                 0.0000
 Depolar     --     0.0000                 0.0000                 0.0000
 Atom AN      X      Y      Z        X      Y      Z        X      Y      Z
   1  28     0.38   0.23  -0.03    -0.03  -0.09   0.02     0.00  -0.01  -0.07
   2   7    -0.02   0.01   0.01     0.00   0.27   0.04    -0.00   0.22   0.02
   3   6    -0.02  -0.01  -0.00    -0.10   0.03   0.02    -0.09   0.02   0.03
   4   7     0.01   0.01   0.03    -0.01  -0.16   0.13    -0.02  -0.17   0.11
   5   6     0.02   0.03   0.01     0.11   0.11   0.08     0.12   0.12   0.05
   6   6     0.05   0.02  -0.01     0.24   0.08   0.02     0.24   0.06   0.02
   7   6     0.00   0.00  -0.03     0.04   0.03  -0.06     0.03   0.04  -0.05
   8   6    -0.01  -0.02  -0.05    -0.01  -0.08  -0.18    -0.01  -0.08  -0.14
   9   6    -0.02  -0.04  -0.02    -0.13  -0.09  -0.05    -0.13  -0.07  -0.03
  10   6     0.03  -0.05  -0.01    -0.02  -0.17   0.12    -0.03  -0.15   0.12
  11   6     0.04   0.03  -0.02    -0.00   0.07   0.04    -0.01   0.06   0.02
  12   6    -0.03  -0.04  -0.02    -0.19   0.01  -0.07    -0.18   0.00  -0.07
  13   1     0.00   0.01  -0.00    -0.00   0.06   0.00     0.00   0.07  -0.01
  14   1     0.01   0.01   0.00     0.09   0.03   0.02     0.10   0.03   0.00
  15   1     0.01  -0.01   0.00     0.07  -0.05   0.02     0.07  -0.07   0.02
  16   1     0.03   0.01  -0.00     0.14   0.04   0.01     0.15   0.04   0.00
  17   1     0.00   0.00  -0.01     0.03   0.01  -0.02     0.03   0.02  -0.01
  18   1    -0.01  -0.00   0.00    -0.04   0.01   0.02    -0.04   0.02   0.02
  19   1    -0.01  -0.01  -0.02    -0.01  -0.03  -0.07    -0.02  -0.03  -0.04
  20   1     0.00   0.00  -0.01     0.01  -0.00  -0.04     0.01  -0.02  -0.03
  21   1    -0.01  -0.01   0.00    -0.02  -0.01   0.01    -0.03  -0.00   0.02
  22   1    -0.01  -0.01  -0.01    -0.06  -0.03  -0.05    -0.06  -0.02  -0.04
  23   1     0.03  -0.02  -0.02     0.04  -0.06   0.03     0.03  -0.06   0.03
  24   1    -0.01  -0.04   0.00    -0.04  -0.08   0.03    -0.03  -0.06   0.02
  25   1     0.02   0.03   0.01     0.06   0.05   0.02     0.05   0.05   0.02
  26   1     0.00   0.02  -0.04    -0.03   0.04  -0.04    -0.03   0.03  -0.04
  27   1    -0.04  -0.00  -0.01    -0.17   0.04  -0.06    -0.15   0.03  -0.06
  28   1    -0.01  -0.04  -0.02    -0.05  -0.12  -0.03    -0.05  -0.10  -0.03
  29   7    -0.01   0.00  -0.02     0.01   0.20  -0.14    -0.01  -0.21   0.13
  30   6    -0.02  -0.01   0.01    -0.09   0.01  -0.04     0.09  -0.00   0.04
  31   7     0.01  -0.00  -0.03    -0.01  -0.18  -0.04     0.01   0.22   0.03
  32   6     0.03   0.02  -0.02     0.11   0.06  -0.10    -0.14  -0.09   0.09
  33   6     0.05   0.02   0.00     0.22   0.06  -0.03    -0.27  -0.05   0.03
  34   6    -0.00   0.01   0.02     0.03   0.04   0.04    -0.03  -0.06  -0.03
  35   6    -0.01   0.01   0.05    -0.02   0.00   0.18     0.03   0.02  -0.18
  36   6    -0.03  -0.03   0.03    -0.13  -0.05   0.07     0.15   0.06  -0.06
  37   6     0.03  -0.04   0.03    -0.01  -0.19  -0.03     0.03   0.21   0.05
  38   6     0.03   0.04   0.00     0.00   0.04  -0.06     0.01  -0.05   0.05
  39   6    -0.03  -0.03   0.03    -0.18   0.04   0.04     0.20  -0.03  -0.05
  40   1     0.00   0.01  -0.00     0.00   0.04  -0.02    -0.00  -0.07   0.03
  41   1     0.01   0.01  -0.00     0.08   0.02  -0.02    -0.11  -0.03   0.01
  42   1     0.01  -0.01   0.00     0.06  -0.05   0.01    -0.07   0.07  -0.02
  43   1     0.03   0.01  -0.00     0.13   0.03  -0.01    -0.16  -0.04   0.01
  44   1     0.00   0.01   0.01     0.02   0.02   0.01    -0.03  -0.02  -0.00
  45   1    -0.01  -0.00  -0.00    -0.03  -0.01  -0.02     0.04  -0.01   0.03
  46   1    -0.01   0.00   0.02    -0.02   0.01   0.06     0.02   0.01  -0.05
  47   1    -0.00   0.01   0.01     0.00   0.02   0.03    -0.01  -0.00  -0.04
  48   1    -0.01  -0.01   0.00    -0.02  -0.02  -0.01     0.03   0.01   0.02
  49   1    -0.01  -0.01   0.01    -0.06  -0.00   0.05     0.07   0.01  -0.05
  50   1     0.03  -0.01   0.03     0.04  -0.06   0.01    -0.03   0.07   0.00
  51   1    -0.01  -0.04   0.01    -0.03  -0.07   0.01     0.04   0.07  -0.00
  52   1     0.02   0.03  -0.02     0.06   0.03  -0.03    -0.06  -0.04   0.04
  53   1     0.00   0.03   0.02    -0.03   0.04   0.01     0.03  -0.05  -0.02
  54   1    -0.04  -0.00   0.00    -0.16   0.06   0.02     0.17  -0.06  -0.03
  55   1    -0.01  -0.03   0.03    -0.05  -0.09   0.07     0.06   0.09  -0.07
  56   6    -0.46   0.03  -0.21     0.09   0.02   0.06    -0.03  -0.01  -0.02
  57   8    -0.01  -0.19   0.26     0.01   0.03  -0.06    -0.01  -0.02   0.03
  58   6    -0.48   0.11   0.14     0.10  -0.01  -0.05     0.03   0.01  -0.01
  59   8     0.00  -0.28  -0.15     0.00   0.06   0.04     0.01   0.02   0.01
                     31                     32                     33
                        a                      a                      a 
 Frequencies --   367.5678               368.1571               377.2933
 Red. masses --     8.8610                 9.0689                 8.7155
 Frc consts  --     0.0000                 0.0000                 0.0000
 IR Inten    --     0.0783                 0.2668                 3.6006
 Raman Activ --     0.0000                 0.0000                 0.0000
 Depolar     --     0.0000                 0.0000                 0.0000
 Atom AN      X      Y      Z        X      Y      Z        X      Y      Z
   1  28     0.01  -0.01   0.00     0.00   0.00   0.02    -0.03  -0.04   0.01
   2   7    -0.06   0.09  -0.01     0.05  -0.07   0.02     0.10   0.10   0.18
   3   6    -0.08  -0.01  -0.11     0.07   0.01   0.08     0.08   0.06   0.05
   4   7    -0.07  -0.06  -0.08     0.06   0.07   0.06     0.09   0.26   0.09
   5   6    -0.15  -0.06   0.26     0.10   0.04  -0.20    -0.05  -0.12   0.02
   6   6    -0.07   0.05   0.18     0.03  -0.04  -0.14    -0.16   0.06  -0.09
   7   6     0.21  -0.08   0.20    -0.17   0.05  -0.15    -0.11  -0.08  -0.13
   8   6     0.16   0.05  -0.20    -0.13  -0.03   0.15    -0.07   0.06  -0.08
   9   6     0.22  -0.07  -0.20    -0.15   0.05   0.15     0.03  -0.07  -0.03
  10   6    -0.03   0.03  -0.03     0.03  -0.02   0.01     0.13  -0.06  -0.06
  11   6    -0.05  -0.01  -0.00     0.05   0.01   0.00     0.09   0.04   0.08
  12   6    -0.06   0.07  -0.04     0.05  -0.06   0.03    -0.06  -0.15   0.08
  13   1    -0.01  -0.10   0.09     0.01   0.07  -0.07    -0.01  -0.12   0.01
  14   1    -0.09   0.00   0.13     0.06  -0.00  -0.10    -0.08  -0.02   0.06
  15   1    -0.02   0.09  -0.03     0.01  -0.06   0.02    -0.04   0.11  -0.02
  16   1    -0.10  -0.00   0.09     0.07   0.00  -0.07    -0.14  -0.01  -0.03
  17   1     0.06  -0.02   0.06    -0.05   0.01  -0.05    -0.07  -0.04  -0.09
  18   1     0.04  -0.02   0.07    -0.03   0.01  -0.05     0.00  -0.08  -0.02
  19   1     0.09   0.02  -0.17    -0.07  -0.01   0.13    -0.01   0.02  -0.08
  20   1    -0.05   0.11  -0.04     0.04  -0.08   0.04    -0.03   0.07  -0.01
  21   1     0.09  -0.09  -0.02    -0.06   0.06   0.01     0.01  -0.06  -0.03
  22   1     0.11   0.01  -0.10    -0.07  -0.00   0.07     0.04  -0.01  -0.01
  23   1    -0.02   0.01   0.01     0.02  -0.01  -0.02     0.10  -0.03  -0.11
  24   1     0.00   0.03  -0.02    -0.00  -0.03   0.01    -0.02  -0.11   0.00
  25   1    -0.02  -0.03  -0.02     0.02   0.02   0.01     0.01   0.04   0.05
  26   1    -0.01  -0.01   0.03     0.01   0.01  -0.02     0.03   0.02  -0.02
  27   1    -0.01   0.02  -0.02     0.01  -0.02   0.02    -0.14  -0.01  -0.01
  28   1    -0.02   0.02  -0.01     0.02  -0.02   0.01    -0.01  -0.17   0.00
  29   7    -0.04   0.06  -0.02    -0.06   0.09  -0.03     0.11   0.01  -0.19
  30   6    -0.06   0.03   0.07    -0.09   0.04   0.09     0.09   0.03  -0.07
  31   7    -0.06  -0.01   0.07    -0.08  -0.04   0.10     0.10   0.19  -0.18
  32   6    -0.10  -0.13  -0.16    -0.12  -0.17  -0.22    -0.05  -0.11   0.03
  33   6    -0.04  -0.03  -0.14    -0.03  -0.04  -0.19    -0.16   0.09   0.04
  34   6     0.17  -0.12  -0.09     0.23  -0.15  -0.13    -0.12  -0.02   0.14
  35   6     0.11   0.10   0.12     0.15   0.13   0.18    -0.08   0.08   0.03
  36   6     0.15   0.02   0.17     0.19   0.03   0.23     0.03  -0.05   0.05
  37   6    -0.02   0.03   0.01    -0.04   0.03   0.00     0.11  -0.02   0.08
  38   6    -0.04  -0.01   0.00    -0.06  -0.01   0.00     0.09   0.00  -0.08
  39   6    -0.04   0.06  -0.00    -0.07   0.09  -0.00    -0.06  -0.16  -0.01
  40   1    -0.00  -0.10  -0.03    -0.00  -0.13  -0.04    -0.01  -0.10   0.04
  41   1    -0.06  -0.04  -0.10    -0.07  -0.06  -0.13    -0.07  -0.04  -0.05
  42   1    -0.02   0.07  -0.02    -0.02   0.09  -0.02    -0.04   0.11  -0.03
  43   1    -0.08  -0.04  -0.07    -0.08  -0.05  -0.09    -0.14   0.00   0.02
  44   1     0.05  -0.03  -0.03     0.07  -0.04  -0.04    -0.08   0.00   0.09
  45   1     0.03  -0.03  -0.04     0.04  -0.04  -0.05    -0.00  -0.06   0.05
  46   1     0.06   0.07   0.11     0.08   0.09   0.15    -0.02   0.05   0.06
  47   1    -0.04   0.09  -0.01    -0.05   0.12  -0.01    -0.02   0.06  -0.03
  48   1     0.06  -0.05   0.05     0.08  -0.07   0.06     0.00  -0.04   0.05
  49   1     0.08   0.04   0.07     0.09   0.05   0.09     0.04   0.00   0.02
  50   1    -0.02   0.00  -0.01    -0.03   0.00  -0.02     0.09   0.02   0.11
  51   1     0.00   0.03   0.00     0.00   0.04  -0.00    -0.02  -0.10   0.04
  52   1    -0.02  -0.01   0.02    -0.02  -0.02   0.03     0.02   0.02  -0.06
  53   1    -0.01  -0.02  -0.02    -0.01  -0.02  -0.02     0.03   0.02   0.01
  54   1    -0.01   0.02   0.01    -0.02   0.03   0.01    -0.13  -0.00  -0.00
  55   1    -0.01   0.02  -0.00    -0.02   0.02  -0.00    -0.01  -0.14   0.06
  56   6    -0.03   0.02   0.00     0.03   0.00   0.01     0.04   0.01   0.00
  57   8    -0.01  -0.01   0.01     0.01   0.02  -0.02     0.01   0.02  -0.03
  58   6    -0.02   0.01  -0.01    -0.04   0.01   0.00     0.04   0.00  -0.01
  59   8    -0.01  -0.01   0.00    -0.01  -0.03  -0.01     0.01   0.03   0.02
                     34                     35                     36
                        a                      a                      a 
 Frequencies --   381.8456               416.8909               417.4080
 Red. masses --     8.4789                10.4210                 8.3001
 Frc consts  --     0.0000                 0.0000                 0.0000
 IR Inten    --    12.7410                 0.2216                11.6448
 Raman Activ --     0.0000                 0.0000                 0.0000
 Depolar     --     0.0000                 0.0000                 0.0000
 Atom AN      X      Y      Z        X      Y      Z        X      Y      Z
   1  28    -0.00   0.01   0.05     0.01  -0.04  -0.18    -0.01   0.06  -0.01
   2   7    -0.10  -0.12  -0.18    -0.09   0.10   0.05     0.10  -0.11  -0.05
   3   6    -0.07  -0.07  -0.05    -0.12   0.05   0.15     0.13  -0.06  -0.17
   4   7    -0.09  -0.22  -0.10    -0.18  -0.01   0.10     0.20   0.01  -0.12
   5   6     0.04   0.11  -0.03    -0.10   0.09  -0.13     0.11  -0.10   0.14
   6   6     0.13  -0.06   0.08    -0.08  -0.07  -0.05     0.09   0.07   0.05
   7   6     0.09   0.08   0.12    -0.01  -0.00  -0.00     0.01   0.00   0.01
   8   6     0.07  -0.05   0.09     0.02   0.05   0.07    -0.02  -0.05  -0.07
   9   6    -0.03   0.08   0.04     0.17  -0.10   0.03    -0.19   0.11  -0.03
  10   6    -0.11   0.07   0.04     0.04  -0.04   0.07    -0.04   0.05  -0.09
  11   6    -0.08  -0.04  -0.07     0.13  -0.02  -0.10    -0.15   0.03   0.11
  12   6     0.10   0.15  -0.06     0.10  -0.02  -0.10    -0.11   0.02   0.12
  13   1     0.01   0.11  -0.01    -0.06   0.14  -0.05     0.06  -0.16   0.05
  14   1     0.07   0.01  -0.06     0.05  -0.00  -0.13    -0.05   0.01   0.15
  15   1     0.03  -0.10   0.02    -0.03  -0.05  -0.03     0.03   0.05   0.03
  16   1     0.12   0.01   0.02     0.00  -0.01  -0.00    -0.00   0.01   0.00
  17   1     0.06   0.04   0.08    -0.01  -0.00   0.01     0.02   0.00  -0.01
  18   1    -0.00   0.07   0.02     0.03   0.00  -0.03    -0.03  -0.00   0.03
  19   1     0.01  -0.01   0.08    -0.00   0.01  -0.01     0.01  -0.01   0.01
  20   1     0.03  -0.07   0.01     0.01   0.03   0.03    -0.01  -0.04  -0.03
  21   1    -0.01   0.06   0.03     0.08  -0.19   0.03    -0.09   0.21  -0.03
  22   1    -0.04   0.01   0.02     0.18   0.04  -0.07    -0.20  -0.04   0.08
  23   1    -0.10   0.04   0.10     0.02  -0.02   0.03    -0.02   0.02  -0.03
  24   1     0.02   0.11  -0.00     0.03  -0.03   0.05    -0.04   0.03  -0.06
  25   1    -0.02  -0.05  -0.05     0.06   0.02  -0.02    -0.07  -0.02   0.02
  26   1    -0.03  -0.02   0.03     0.04  -0.00  -0.06    -0.04  -0.00   0.06
  27   1     0.16   0.00   0.02     0.04  -0.01  -0.04    -0.05   0.01   0.05
  28   1     0.02   0.17   0.00     0.03   0.01  -0.05    -0.04  -0.01   0.06
  29   7     0.12   0.03  -0.21     0.09  -0.06   0.10     0.09  -0.07   0.10
  30   6     0.08   0.04  -0.08     0.11   0.02   0.17     0.11   0.02   0.18
  31   7     0.10   0.17  -0.18     0.18   0.05   0.10     0.19   0.06   0.12
  32   6    -0.04  -0.12   0.01     0.11  -0.14  -0.07     0.12  -0.15  -0.07
  33   6    -0.14   0.09   0.03     0.09   0.04  -0.06     0.09   0.04  -0.07
  34   6    -0.11  -0.02   0.14     0.01   0.00  -0.00     0.01  -0.00  -0.01
  35   6    -0.08   0.08   0.06    -0.03  -0.02   0.08    -0.02  -0.02   0.08
  36   6     0.03  -0.06   0.07    -0.18   0.10  -0.03    -0.19   0.11  -0.03
  37   6     0.11  -0.05   0.08    -0.04   0.07   0.05    -0.04   0.08   0.05
  38   6     0.09   0.01  -0.08    -0.12  -0.02  -0.11    -0.13  -0.03  -0.12
  39   6    -0.10  -0.17   0.00    -0.09  -0.03  -0.11    -0.10  -0.04  -0.12
  40   1    -0.01  -0.11   0.04     0.06  -0.15   0.03     0.06  -0.16   0.03
  41   1    -0.07  -0.04  -0.06    -0.04  -0.06  -0.13    -0.04  -0.06  -0.14
  42   1    -0.03   0.11  -0.03     0.03   0.03  -0.04     0.03   0.03  -0.04
  43   1    -0.13   0.00   0.02    -0.00   0.01  -0.01    -0.00   0.01  -0.01
  44   1    -0.07   0.00   0.09     0.01   0.01   0.01     0.02   0.01   0.01
  45   1    -0.00  -0.06   0.05    -0.03  -0.02  -0.02    -0.03  -0.02  -0.03
  46   1    -0.02   0.05   0.07     0.01  -0.01  -0.00     0.01  -0.01  -0.00
  47   1    -0.03   0.07  -0.02    -0.01  -0.02   0.04    -0.01  -0.02   0.04
  48   1     0.00  -0.05   0.05    -0.08   0.19  -0.07    -0.08   0.20  -0.07
  49   1     0.04   0.01   0.03    -0.18  -0.07  -0.07    -0.19  -0.08  -0.07
  50   1     0.09   0.01   0.12    -0.03   0.03   0.02    -0.03   0.03   0.02
  51   1    -0.02  -0.11   0.05    -0.04   0.05   0.03    -0.04   0.05   0.04
  52   1     0.02   0.03  -0.07    -0.06  -0.02  -0.01    -0.06  -0.02  -0.01
  53   1     0.03   0.03   0.02    -0.04  -0.03  -0.05    -0.04  -0.03  -0.06
  54   1    -0.17   0.00   0.01    -0.04  -0.02  -0.05    -0.04  -0.02  -0.05
  55   1    -0.03  -0.16   0.08    -0.03  -0.03  -0.05    -0.03  -0.03  -0.05
  56   6     0.03   0.00   0.03    -0.04   0.08   0.18     0.00  -0.03  -0.01
  57   8    -0.00   0.01  -0.01    -0.05  -0.11   0.02     0.00  -0.01   0.01
  58   6    -0.03   0.01   0.02     0.03   0.00   0.20     0.00  -0.02   0.01
  59   8     0.00  -0.01  -0.01     0.05   0.11  -0.02     0.00  -0.01  -0.01
                     37                     38                     39
                        a                      a                      a 
 Frequencies --   424.4932               481.4176               481.6519
 Red. masses --    20.1541                 9.7077                 9.9460
 Frc consts  --     0.0000                 0.0000                 0.0000
 IR Inten    --    14.9806                 3.5871                 1.4686
 Raman Activ --     0.0000                 0.0000                 0.0000
 Depolar     --     0.0000                 0.0000                 0.0000
 Atom AN      X      Y      Z        X      Y      Z        X      Y      Z
   1  28    -0.02   0.09   0.41     0.01   0.01   0.02     0.01  -0.01  -0.03
   2   7    -0.03   0.06   0.01    -0.29  -0.19  -0.15     0.06   0.04   0.03
   3   6    -0.05   0.02   0.06    -0.06   0.24  -0.10     0.01  -0.06   0.02
   4   7    -0.08  -0.00   0.05     0.07  -0.13   0.02    -0.02   0.03  -0.00
   5   6    -0.04   0.04  -0.05     0.12  -0.09  -0.05    -0.03   0.02   0.00
   6   6    -0.03  -0.03  -0.02    -0.03  -0.04  -0.04     0.00   0.00   0.01
   7   6    -0.00  -0.00  -0.00    -0.04  -0.00  -0.04     0.01   0.00   0.01
   8   6     0.01   0.02   0.02    -0.02   0.04   0.05     0.01  -0.01  -0.01
   9   6     0.07  -0.04   0.01     0.11   0.23  -0.22    -0.02  -0.05   0.05
  10   6     0.01  -0.02   0.04     0.18  -0.09   0.11    -0.03   0.02  -0.03
  11   6     0.05  -0.01  -0.04     0.10  -0.00   0.38    -0.02   0.00  -0.08
  12   6     0.04   0.01  -0.05    -0.20   0.13   0.07     0.05  -0.03  -0.01
  13   1    -0.03   0.06  -0.02     0.02   0.04  -0.02    -0.00  -0.00   0.00
  14   1     0.02  -0.00  -0.05     0.09  -0.04  -0.06    -0.02   0.01   0.01
  15   1    -0.01  -0.02  -0.01    -0.00   0.03   0.01    -0.00  -0.01  -0.00
  16   1     0.00  -0.00  -0.00    -0.05  -0.02  -0.03     0.01   0.00   0.01
  17   1    -0.00  -0.00   0.00    -0.04  -0.01  -0.02     0.01   0.00   0.01
  18   1     0.01   0.00  -0.01     0.02  -0.02  -0.01    -0.00   0.01   0.00
  19   1    -0.00   0.00  -0.00    -0.01   0.02   0.13     0.00  -0.00  -0.03
  20   1     0.00   0.01   0.01    -0.00  -0.11  -0.02     0.00   0.02   0.01
  21   1     0.03  -0.08   0.01     0.04  -0.06  -0.07    -0.01   0.01   0.02
  22   1     0.07   0.02  -0.03     0.11   0.11  -0.14    -0.02  -0.02   0.03
  23   1     0.01  -0.01   0.02     0.13  -0.05   0.00    -0.03   0.01  -0.00
  24   1     0.01  -0.01   0.03    -0.04  -0.07  -0.01     0.01   0.01   0.00
  25   1     0.03   0.00  -0.01     0.02  -0.12   0.03    -0.00   0.02  -0.01
  26   1     0.01   0.00  -0.02     0.04  -0.03   0.23    -0.01   0.01  -0.05
  27   1     0.02   0.00  -0.02    -0.08   0.03   0.08     0.02  -0.01  -0.02
  28   1     0.01   0.01  -0.02    -0.04   0.02  -0.07     0.01  -0.00   0.01
  29   7     0.03  -0.05   0.04    -0.09  -0.03   0.06    -0.30  -0.10   0.19
  30   6     0.05   0.01   0.07    -0.02   0.07  -0.00    -0.06   0.26  -0.02
  31   7     0.07   0.02   0.06     0.02  -0.03   0.01     0.07  -0.12   0.04
  32   6     0.05  -0.05  -0.02     0.03  -0.01   0.03     0.12  -0.06   0.10
  33   6     0.03   0.02  -0.02    -0.02  -0.01   0.02    -0.03  -0.01   0.05
  34   6     0.00   0.00  -0.00    -0.01   0.00   0.01    -0.05   0.01   0.03
  35   6    -0.01  -0.01   0.03    -0.00   0.00  -0.02    -0.01   0.01  -0.06
  36   6    -0.07   0.04  -0.02     0.03   0.09   0.03     0.10   0.30   0.11
  37   6    -0.01   0.04   0.03     0.06  -0.04  -0.01     0.18  -0.12  -0.04
  38   6    -0.04  -0.01  -0.04     0.04  -0.05  -0.10     0.13  -0.17  -0.32
  39   6    -0.03  -0.03  -0.04    -0.05   0.02  -0.04    -0.20   0.08  -0.13
  40   1     0.03  -0.06   0.01     0.00   0.02   0.00     0.02   0.04   0.01
  41   1    -0.01  -0.02  -0.05     0.02  -0.00   0.03     0.08  -0.01   0.08
  42   1     0.01   0.01  -0.02    -0.00   0.01  -0.01    -0.00   0.03  -0.02
  43   1    -0.00   0.00  -0.00    -0.02  -0.00   0.01    -0.05  -0.01   0.03
  44   1     0.00   0.00   0.00    -0.01  -0.00   0.00    -0.04   0.00   0.02
  45   1    -0.01  -0.01  -0.01     0.00  -0.00   0.01     0.01  -0.01   0.02
  46   1     0.00  -0.01  -0.00     0.00  -0.01  -0.03     0.00  -0.04  -0.12
  47   1    -0.00  -0.01   0.01    -0.00  -0.02   0.02    -0.01  -0.08   0.07
  48   1    -0.03   0.08  -0.02     0.01  -0.01   0.02     0.04  -0.02   0.09
  49   1    -0.07  -0.03  -0.03     0.03   0.05   0.02     0.10   0.16   0.08
  50   1    -0.01   0.01   0.01     0.04  -0.01   0.01     0.13  -0.05   0.03
  51   1    -0.01   0.02   0.02    -0.01  -0.02   0.01    -0.04  -0.06   0.04
  52   1    -0.03  -0.01  -0.01     0.01  -0.04   0.01     0.02  -0.12   0.03
  53   1    -0.01  -0.01  -0.02     0.02  -0.04  -0.06     0.06  -0.13  -0.19
  54   1    -0.01  -0.01  -0.02    -0.02  -0.00  -0.03    -0.07  -0.01  -0.09
  55   1    -0.01  -0.01  -0.01    -0.01   0.02   0.01    -0.05   0.05   0.05
  56   6    -0.02  -0.14  -0.51    -0.04   0.13  -0.02     0.05  -0.19   0.02
  57   8     0.13   0.23  -0.01     0.05   0.01  -0.04    -0.08  -0.01   0.06
  58   6     0.06  -0.09  -0.51     0.02  -0.11   0.05    -0.06   0.19  -0.07
  59   8    -0.13  -0.21   0.07    -0.04  -0.02  -0.04     0.08   0.04   0.06
                     40                     41                     42
                        a                      a                      a 
 Frequencies --   492.6496               510.7047               511.4869
 Red. masses --    12.8227                 9.4563                 6.0308
 Frc consts  --     0.0000                 0.0000                 0.0000
 IR Inten    --     1.4350                 0.8655                 1.4070
 Raman Activ --     0.0000                 0.0000                 0.0000
 Depolar     --     0.0000                 0.0000                 0.0000
 Atom AN      X      Y      Z        X      Y      Z        X      Y      Z
   1  28     0.00  -0.03  -0.11    -0.03  -0.15   0.03    -0.00  -0.01   0.01
   2   7    -0.09  -0.07  -0.05    -0.05  -0.02   0.15     0.01   0.04  -0.03
   3   6    -0.03   0.06  -0.03    -0.01   0.03  -0.02    -0.03  -0.07  -0.02
   4   7     0.02  -0.02   0.02    -0.15  -0.12  -0.20     0.06   0.10   0.09
   5   6     0.03  -0.03  -0.03    -0.18   0.14   0.14     0.10  -0.05  -0.18
   6   6    -0.03  -0.03  -0.01     0.15   0.11   0.00    -0.17  -0.13   0.02
   7   6    -0.00   0.00   0.00    -0.09  -0.01  -0.09     0.13   0.02   0.14
   8   6     0.00   0.01   0.01    -0.05   0.02   0.06     0.08  -0.04  -0.11
   9   6     0.04   0.06  -0.06     0.06   0.05  -0.04    -0.12  -0.02   0.04
  10   6     0.05  -0.03   0.04     0.10   0.04  -0.14     0.01  -0.02   0.05
  11   6     0.03  -0.00   0.12     0.08  -0.02   0.02     0.02   0.01   0.04
  12   6    -0.06   0.03   0.02     0.08  -0.10   0.10    -0.04   0.03  -0.03
  13   1     0.00   0.03  -0.01    -0.04  -0.09   0.04     0.02   0.14  -0.04
  14   1     0.03  -0.02  -0.04    -0.08   0.07   0.14     0.07  -0.06  -0.18
  15   1    -0.01   0.02  -0.00     0.03  -0.17   0.01    -0.04   0.13  -0.02
  16   1    -0.03  -0.01  -0.01     0.23   0.08   0.00    -0.20  -0.07   0.02
  17   1    -0.00   0.00   0.01    -0.10  -0.04  -0.13     0.14   0.05   0.17
  18   1     0.00   0.00  -0.01     0.02  -0.12   0.03    -0.03   0.16  -0.03
  19   1     0.00   0.00   0.03    -0.04   0.00   0.10     0.06  -0.00  -0.12
  20   1    -0.00  -0.02  -0.01     0.02  -0.08  -0.00    -0.03   0.08  -0.01
  21   1     0.02  -0.02  -0.01     0.01  -0.02  -0.03    -0.04   0.10   0.04
  22   1     0.04   0.03  -0.04     0.04   0.03  -0.01    -0.12  -0.05   0.04
  23   1     0.04  -0.02  -0.00     0.04   0.00  -0.01     0.02  -0.01  -0.02
  24   1    -0.01  -0.03   0.00     0.03   0.01  -0.04    -0.02  -0.03   0.01
  25   1     0.01  -0.04   0.01    -0.05  -0.00   0.02     0.02  -0.02  -0.00
  26   1     0.01  -0.01   0.07     0.05  -0.02   0.01     0.01  -0.00   0.03
  27   1    -0.02   0.01   0.03     0.03  -0.03   0.03    -0.04   0.02  -0.01
  28   1    -0.01   0.01  -0.02     0.03  -0.02   0.00    -0.01  -0.02  -0.01
  29   7     0.09   0.04  -0.06    -0.04  -0.08  -0.12    -0.02  -0.06  -0.04
  30   6     0.03  -0.06   0.00    -0.02   0.03   0.01     0.02   0.05  -0.04
  31   7    -0.01   0.03   0.01    -0.15  -0.01   0.20    -0.10  -0.05   0.15
  32   6    -0.03   0.01  -0.04    -0.15   0.06  -0.18    -0.10  -0.02  -0.20
  33   6     0.03   0.02  -0.02     0.14   0.09  -0.03     0.18   0.13  -0.03
  34   6     0.00  -0.00   0.00    -0.08   0.03   0.07    -0.14   0.04   0.13
  35   6    -0.00  -0.01   0.01    -0.04  -0.01  -0.06    -0.07  -0.01  -0.12
  36   6    -0.03  -0.07  -0.03     0.04   0.06   0.02     0.12   0.05   0.04
  37   6    -0.05   0.04   0.02     0.09   0.10   0.11     0.00   0.05   0.05
  38   6    -0.04   0.05   0.09     0.08  -0.03  -0.01    -0.01   0.00   0.03
  39   6     0.05  -0.02   0.04     0.08  -0.12  -0.04     0.05  -0.06  -0.01
  40   1    -0.00  -0.03   0.00    -0.03  -0.08  -0.00    -0.03  -0.15   0.02
  41   1    -0.02  -0.00  -0.04    -0.06   0.00  -0.15    -0.06  -0.03  -0.20
  42   1     0.01  -0.01   0.01     0.03  -0.14   0.06     0.04  -0.14   0.05
  43   1     0.03   0.01  -0.01     0.20   0.07  -0.02     0.22   0.08   0.00
  44   1     0.00   0.00   0.00    -0.09   0.02   0.10    -0.15   0.02   0.17
  45   1    -0.00  -0.01  -0.01     0.02  -0.11   0.02     0.03  -0.16   0.05
  46   1    -0.00   0.01   0.03    -0.03  -0.04  -0.08    -0.05  -0.05  -0.12
  47   1     0.00   0.02  -0.01     0.01  -0.06   0.03     0.02  -0.08   0.03
  48   1    -0.02   0.01  -0.02     0.01  -0.00   0.03     0.03  -0.07   0.08
  49   1    -0.03  -0.04  -0.02     0.03   0.02   0.00     0.11   0.06   0.02
  50   1    -0.04   0.01  -0.01     0.04   0.01   0.02    -0.01   0.00  -0.02
  51   1     0.01   0.02  -0.01     0.03   0.03   0.03     0.02   0.04   0.01
  52   1    -0.01   0.03  -0.01    -0.04  -0.01  -0.02    -0.02   0.01  -0.01
  53   1    -0.02   0.04   0.05     0.05  -0.02  -0.00     0.00   0.01   0.02
  54   1     0.02   0.01   0.03     0.02  -0.04  -0.01     0.04  -0.02  -0.00
  55   1     0.01  -0.01  -0.01     0.02  -0.02   0.01     0.02   0.01  -0.02
  56   6     0.15  -0.56   0.04    -0.03   0.08  -0.09    -0.01   0.05  -0.00
  57   8    -0.22  -0.02   0.17     0.07   0.05  -0.04     0.02   0.01  -0.02
  58   6    -0.14   0.52  -0.22    -0.03   0.12   0.04     0.00  -0.03   0.03
  59   8     0.21   0.10   0.17     0.07   0.06   0.02    -0.01  -0.00  -0.01
                     43                     44                     45
                        a                      a                      a 
 Frequencies --   512.2115               515.5205               531.4511
 Red. masses --     8.9468                 9.8669                24.0911
 Frc consts  --     0.0000                 0.0000                 0.0000
 IR Inten    --     6.7607                 0.2209                 4.9723
 Raman Activ --     0.0000                 0.0000                 0.0000
 Depolar     --     0.0000                 0.0000                 0.0000
 Atom AN      X      Y      Z        X      Y      Z        X      Y      Z
   1  28     0.02   0.15  -0.03     0.00  -0.01  -0.04    -0.13  -0.47   0.10
   2   7     0.05  -0.04  -0.14    -0.06   0.03   0.21     0.01  -0.02  -0.07
   3   6     0.07   0.08   0.06    -0.07  -0.05  -0.06     0.03   0.02   0.01
   4   7     0.09  -0.02   0.11    -0.17  -0.04  -0.20     0.08   0.02   0.07
   5   6     0.08  -0.10   0.12    -0.17   0.17  -0.03     0.09  -0.08   0.00
   6   6     0.10   0.09  -0.04    -0.01  -0.02   0.04    -0.00  -0.00  -0.01
   7   6    -0.11  -0.03  -0.12     0.05   0.02   0.06    -0.01  -0.00  -0.01
   8   6    -0.07   0.05   0.10     0.03  -0.04  -0.05    -0.01   0.01   0.01
[...]
   6   6     0.01  -0.00   0.00    -0.02   0.01   0.00    -0.11   0.11  -0.01
   7   6     0.00   0.00   0.00    -0.00   0.00   0.00    -0.07  -0.02  -0.08
   8   6     0.00   0.01  -0.01     0.00  -0.02   0.02    -0.01  -0.11   0.13
   9   6    -0.00   0.00  -0.00    -0.00   0.01   0.00     0.02  -0.06  -0.00
  10   6     0.00   0.00   0.00     0.00   0.03   0.01    -0.00  -0.00   0.00
  11   6     0.00   0.02  -0.00     0.06   0.26  -0.01    -0.01  -0.02  -0.00
  12   6    -0.01   0.00  -0.00     0.04   0.02   0.01    -0.00  -0.00  -0.00
  13   1    -0.01  -0.00   0.01     0.03   0.00  -0.04     0.14   0.02  -0.20
  14   1     0.00   0.00  -0.00    -0.00  -0.02   0.01    -0.01  -0.06   0.03
  15   1    -0.02   0.00   0.00     0.06  -0.00  -0.01     0.29  -0.00  -0.03
  16   1    -0.00   0.01  -0.00     0.00  -0.02   0.00     0.11  -0.40   0.05
  17   1    -0.00   0.00   0.00     0.00  -0.01   0.00     0.04  -0.17   0.01
  18   1    -0.00  -0.00  -0.00     0.00   0.00   0.00     0.22   0.25   0.30
  19   1     0.00  -0.02   0.00    -0.02   0.06  -0.00    -0.07   0.22   0.00
  20   1    -0.01  -0.01   0.03     0.01   0.02  -0.07     0.09   0.15  -0.46
  21   1    -0.00  -0.00   0.00     0.00   0.00  -0.00     0.02  -0.00  -0.01
  22   1     0.00  -0.00  -0.00     0.01  -0.03  -0.00    -0.09   0.21   0.03
  23   1    -0.00  -0.00  -0.00    -0.02  -0.06  -0.00     0.00   0.01   0.00
  24   1    -0.00   0.00   0.00     0.02  -0.01  -0.02     0.00  -0.00  -0.01
  25   1     0.00  -0.01   0.01     0.04  -0.10   0.19    -0.00   0.00  -0.01
  26   1    -0.02  -0.06  -0.01    -0.27  -0.85  -0.18     0.03   0.09   0.02
  27   1    -0.01  -0.01  -0.00    -0.01  -0.05  -0.01     0.00   0.01   0.00
  28   1     0.04   0.00   0.01    -0.12  -0.00  -0.02     0.00  -0.00   0.00
  29   7    -0.00   0.00  -0.00     0.00  -0.00  -0.00    -0.00   0.00  -0.00
  30   6    -0.00  -0.00   0.00    -0.00   0.00  -0.00     0.00  -0.00   0.00
  31   7     0.00   0.00  -0.00    -0.00  -0.00  -0.00    -0.00  -0.00  -0.00
  32   6     0.01  -0.00   0.01    -0.00  -0.00  -0.00    -0.00  -0.00  -0.00
  33   6     0.02  -0.00   0.00    -0.01   0.01  -0.00    -0.01   0.01  -0.01
  34   6    -0.00  -0.00   0.00    -0.00  -0.00   0.00    -0.01   0.00   0.01
  35   6    -0.00   0.02   0.01     0.00  -0.01  -0.01    -0.00  -0.02  -0.01
  36   6     0.00  -0.01   0.01     0.00  -0.00  -0.00     0.00  -0.01   0.00
  37   6    -0.01  -0.02   0.02    -0.00   0.00  -0.00    -0.00  -0.00   0.00
  38   6    -0.07  -0.24   0.11     0.00   0.01  -0.00    -0.00  -0.01   0.01
  39   6    -0.04  -0.02   0.02     0.01  -0.00  -0.00    -0.00  -0.00   0.00
  40   1    -0.02  -0.02  -0.04     0.01   0.01   0.02     0.01   0.01   0.02
  41   1     0.00   0.02  -0.00    -0.00  -0.01   0.00    -0.00  -0.00  -0.00
  42   1    -0.05  -0.00  -0.01     0.02   0.00   0.00     0.03   0.00   0.01
  43   1    -0.00   0.01  -0.00     0.00  -0.02   0.01     0.01  -0.05   0.02
  44   1    -0.00   0.00  -0.00     0.00  -0.00   0.00     0.00  -0.02   0.01
  45   1     0.01   0.00  -0.01     0.01   0.00  -0.01     0.04   0.02  -0.06
  46   1     0.01  -0.05   0.02    -0.01   0.02  -0.01    -0.01   0.02  -0.01
  47   1    -0.01  -0.04  -0.04     0.00   0.03   0.03     0.01   0.04   0.04
  48   1     0.00  -0.00   0.00     0.00   0.00   0.00     0.00   0.00   0.00
  49   1    -0.01   0.03  -0.02    -0.00   0.00  -0.00    -0.01   0.03  -0.02
  50   1     0.02   0.05  -0.03    -0.00  -0.00   0.00     0.00   0.00  -0.00
  51   1    -0.02   0.00  -0.03     0.00  -0.00   0.00    -0.00   0.00  -0.00
  52   1    -0.05   0.17   0.12     0.00  -0.01  -0.01    -0.00   0.01   0.01
  53   1     0.30   0.69  -0.51    -0.01  -0.03   0.02     0.02   0.04  -0.03
  54   1     0.01   0.05  -0.03     0.00   0.01  -0.00     0.00   0.00  -0.00
  55   1     0.11  -0.01  -0.01    -0.05   0.00   0.01     0.00  -0.00  -0.00
  56   6    -0.00  -0.00   0.00     0.00   0.00  -0.00    -0.00  -0.00   0.00
  57   8     0.00   0.00  -0.00    -0.00  -0.00   0.00     0.00   0.00  -0.00
  58   6    -0.00  -0.00  -0.00     0.00   0.00   0.00    -0.00  -0.00  -0.00
  59   8     0.00   0.00   0.00    -0.00  -0.00  -0.00     0.00   0.00   0.00
                    163                    164                    165
                        a                      a                      a 
 Frequencies --  2978.5023              2985.9617              2986.1859
 Red. masses --     1.8280                 1.7785                 1.7842
 Frc consts  --     0.0000                 0.0000                 0.0000
 IR Inten    --    30.5032               165.7531                42.9288
 Raman Activ --     0.0000                 0.0000                 0.0000
 Depolar     --     0.0000                 0.0000                 0.0000
 Atom AN      X      Y      Z        X      Y      Z        X      Y      Z
   1  28    -0.00   0.00   0.00     0.00   0.00  -0.00    -0.00  -0.00  -0.00
   2   7    -0.00  -0.00  -0.00     0.00   0.00  -0.00    -0.00   0.00  -0.00
   3   6     0.00   0.00  -0.00    -0.00  -0.00  -0.00     0.00  -0.00  -0.00
   4   7    -0.00  -0.00   0.00     0.00   0.00  -0.00     0.00   0.00  -0.00
   5   6    -0.01   0.00   0.01     0.01  -0.00  -0.02     0.01  -0.00  -0.01
   6   6    -0.02   0.02  -0.00     0.07  -0.01  -0.00     0.06  -0.01  -0.00
   7   6    -0.01  -0.00  -0.01     0.07  -0.01   0.07     0.06  -0.01   0.06
   8   6    -0.00  -0.02   0.02     0.00  -0.11   0.12     0.00  -0.09   0.10
   9   6     0.00  -0.01  -0.00     0.01  -0.03  -0.00     0.01  -0.03  -0.00
  10   6    -0.00   0.00   0.00     0.00  -0.00  -0.00     0.00  -0.00  -0.00
  11   6     0.00   0.01  -0.00    -0.00  -0.01   0.00     0.00  -0.00   0.01
  12   6     0.00   0.00   0.00    -0.00  -0.00  -0.00    -0.00  -0.00   0.00
  13   1     0.02   0.00  -0.03    -0.04  -0.01   0.07    -0.04  -0.01   0.06
  14   1    -0.00  -0.01   0.00     0.00   0.02  -0.01     0.00   0.02  -0.01
  15   1     0.04  -0.00  -0.00    -0.27   0.02   0.03    -0.21   0.01   0.02
  16   1     0.01  -0.05   0.01     0.01   0.00  -0.00    -0.00   0.03  -0.01
  17   1     0.00  -0.02   0.00    -0.06   0.25  -0.02    -0.05   0.21  -0.01
  18   1     0.02   0.03   0.03    -0.18  -0.21  -0.24    -0.15  -0.17  -0.20
  19   1    -0.01   0.04  -0.00    -0.07   0.24  -0.00    -0.06   0.19  -0.00
  20   1     0.01   0.02  -0.07     0.08   0.13  -0.42     0.07   0.11  -0.34
  21   1     0.00  -0.00  -0.00     0.01  -0.00  -0.00     0.01  -0.00  -0.00
  22   1    -0.01   0.02   0.00    -0.05   0.10   0.02    -0.04   0.09   0.01
  23   1    -0.00  -0.00  -0.00     0.00   0.00  -0.00    -0.00  -0.00  -0.00
  24   1     0.00  -0.00  -0.00    -0.00   0.00   0.01    -0.00   0.00   0.01
  25   1     0.00  -0.00   0.01    -0.00   0.01  -0.02    -0.00   0.01  -0.02
  26   1    -0.01  -0.04  -0.01     0.01   0.02   0.01     0.00  -0.00   0.00
  27   1    -0.00  -0.00  -0.00    -0.00   0.00   0.00    -0.00  -0.00   0.00
  28   1    -0.00  -0.00  -0.00     0.01   0.00   0.00     0.00   0.00   0.00
  29   7     0.00  -0.00   0.00     0.00   0.00   0.00     0.00  -0.00  -0.00
  30   6    -0.00   0.00  -0.00    -0.00  -0.00   0.00     0.00   0.00  -0.00
  31   7     0.00   0.00   0.00     0.00   0.00   0.00    -0.00  -0.00  -0.00
  32   6     0.03   0.01   0.05     0.01   0.00   0.01    -0.01  -0.00  -0.02
  33   6     0.11  -0.10   0.05     0.06  -0.00   0.01    -0.07   0.01  -0.02
  34   6     0.08  -0.01  -0.07     0.06  -0.03  -0.05    -0.07   0.04   0.06
  35   6    -0.00   0.15   0.07     0.01  -0.12  -0.05    -0.01   0.14   0.06
  36   6    -0.02   0.05  -0.03     0.01  -0.02   0.01    -0.01   0.03  -0.02
  37   6     0.00   0.00   0.00     0.00  -0.00   0.00    -0.00   0.00  -0.00
  38   6     0.01   0.01  -0.01    -0.00  -0.01   0.00    -0.00   0.01   0.00
  39   6     0.00   0.00  -0.00    -0.00  -0.00   0.00     0.00   0.00  -0.00
  40   1    -0.12  -0.11  -0.18    -0.03  -0.03  -0.05     0.04   0.04   0.06
  41   1     0.01   0.06   0.00     0.00   0.02  -0.00    -0.00  -0.03   0.00
  42   1    -0.27  -0.01  -0.05    -0.22   0.00  -0.04     0.25   0.00   0.05
  43   1    -0.10   0.38  -0.14     0.01   0.00   0.00     0.00  -0.04   0.01
  44   1    -0.03   0.15  -0.07    -0.04   0.19  -0.08     0.06  -0.24   0.10
  45   1    -0.25  -0.10   0.35    -0.17  -0.07   0.25     0.21   0.09  -0.30
  46   1     0.06  -0.20   0.11    -0.05   0.18  -0.09     0.07  -0.21   0.11
  47   1    -0.05  -0.35  -0.36     0.04   0.24   0.26    -0.05  -0.30  -0.32
  48   1    -0.02  -0.00  -0.01     0.01  -0.00   0.00    -0.01   0.00  -0.00
  49   1     0.09  -0.18   0.13    -0.03   0.07  -0.05     0.04  -0.09   0.07
  50   1    -0.00  -0.00   0.00     0.00   0.00  -0.00    -0.00   0.00  -0.00
  51   1    -0.00   0.00  -0.01    -0.00   0.00  -0.01     0.00  -0.00   0.01
  52   1     0.00  -0.00  -0.00    -0.00   0.02   0.01     0.01  -0.03  -0.01
  53   1    -0.02  -0.05   0.04     0.01   0.02  -0.01    -0.00  -0.00   0.00
  54   1    -0.00  -0.00   0.00     0.00   0.00  -0.00     0.00  -0.00   0.00
  55   1    -0.00   0.00  -0.00     0.01  -0.00  -0.00    -0.00   0.00   0.00
  56   6     0.00   0.00  -0.00    -0.00  -0.00   0.00    -0.00  -0.00   0.00
  57   8    -0.00  -0.00   0.00     0.00   0.00  -0.00     0.00   0.00  -0.00
  58   6     0.00   0.00   0.00    -0.00  -0.00  -0.00     0.00   0.00   0.00
  59   8    -0.00  -0.00  -0.00     0.00   0.00   0.00    -0.00  -0.00  -0.00
                    166                    167                    168
                        a                      a                      a 
 Frequencies --  2989.0657              2989.1781              2997.5940
 Red. masses --     1.5768                 1.5803                 1.6297
 Frc consts  --     0.0000                 0.0000                 0.0000
 IR Inten    --    23.8586                82.4545                23.3446
 Raman Activ --     0.0000                 0.0000                 0.0000
 Depolar     --     0.0000                 0.0000                 0.0000
 Atom AN      X      Y      Z        X      Y      Z        X      Y      Z
   1  28     0.00   0.00   0.00    -0.00  -0.00   0.00     0.00  -0.00   0.00
   2   7    -0.00   0.00  -0.00     0.00  -0.00  -0.00    -0.00   0.00   0.00
   3   6     0.00  -0.00  -0.00    -0.00   0.00   0.00    -0.00   0.00  -0.00
   4   7    -0.00   0.00   0.00     0.00  -0.00  -0.00     0.00   0.00  -0.00
   5   6    -0.02  -0.02   0.03     0.01   0.01  -0.01    -0.00  -0.00   0.00
   6   6    -0.05  -0.18   0.03     0.01   0.06  -0.01    -0.00   0.00   0.00
   7   6    -0.01  -0.05  -0.02     0.00   0.02   0.00    -0.00   0.00  -0.00
   8   6    -0.01  -0.01   0.06     0.01   0.01  -0.03    -0.01   0.02   0.01
   9   6     0.00  -0.01   0.00    -0.00   0.01  -0.00    -0.00   0.00   0.00
  10   6    -0.00  -0.00   0.00     0.00   0.00  -0.00    -0.00  -0.00   0.01
  11   6    -0.00  -0.01  -0.00     0.00   0.00   0.00     0.04  -0.08   0.19
  12   6    -0.00  -0.00  -0.00     0.00   0.00   0.00     0.02  -0.01   0.01
  13   1     0.06   0.00  -0.09    -0.02  -0.00   0.03     0.01   0.00  -0.01
  14   1    -0.00   0.05  -0.01    -0.00  -0.02   0.01    -0.00  -0.00   0.00
  15   1     0.40  -0.05  -0.03    -0.12   0.02   0.01     0.01  -0.00  -0.00
  16   1    -0.23   0.72  -0.09     0.07  -0.23   0.03     0.00  -0.01   0.00
  17   1    -0.03   0.09  -0.01     0.01  -0.04   0.00     0.00  -0.02   0.00
  18   1     0.07   0.07   0.09    -0.01  -0.01  -0.02    -0.00   0.00  -0.00
  19   1     0.01  -0.04   0.01    -0.00   0.01  -0.00     0.03  -0.09   0.01
  20   1     0.04   0.09  -0.25    -0.02  -0.03   0.10     0.01   0.02  -0.04
  21   1     0.01   0.00  -0.01    -0.01  -0.00   0.00     0.00   0.00  -0.00
  22   1    -0.02   0.05   0.01     0.01  -0.02  -0.00     0.01  -0.01  -0.00
  23   1     0.00   0.02   0.00    -0.00  -0.01  -0.00     0.00   0.01   0.00
  24   1     0.01  -0.01  -0.01    -0.00   0.00   0.00     0.02  -0.02  -0.02
  25   1     0.00  -0.01   0.01    -0.00   0.00  -0.00    -0.10   0.48  -0.67
  26   1     0.01   0.02   0.00    -0.00  -0.01  -0.00    -0.05  -0.20  -0.01
  27   1     0.00   0.01   0.00    -0.00  -0.00  -0.00     0.01   0.02   0.00
  28   1     0.01   0.00   0.00     0.00   0.00   0.00    -0.08  -0.00  -0.01
  29   7     0.00  -0.00  -0.00     0.00  -0.00   0.00    -0.00   0.00  -0.00
  30   6    -0.00   0.00  -0.00    -0.00   0.00  -0.00     0.00   0.00   0.00
  31   7     0.00   0.00   0.00     0.00   0.00   0.00    -0.00   0.00   0.00
  32   6     0.01   0.01   0.01     0.02   0.03   0.02    -0.00  -0.00  -0.00
  33   6     0.02   0.06  -0.01     0.05   0.18  -0.05    -0.00   0.00  -0.00
  34   6     0.01   0.01  -0.01     0.01   0.04  -0.03     0.00   0.00  -0.00
  35   6     0.00   0.01   0.01     0.01   0.04   0.05    -0.01   0.01  -0.02
  36   6    -0.00   0.00  -0.00    -0.00   0.01  -0.00    -0.00   0.00  -0.00
  37   6     0.00   0.00   0.00     0.00   0.00  -0.00    -0.00  -0.00  -0.00
  38   6     0.00  -0.00  -0.00     0.00   0.00  -0.01     0.03  -0.08  -0.06
  39   6     0.00  -0.00  -0.00     0.00   0.00  -0.00     0.01  -0.00  -0.00
  40   1    -0.02  -0.02  -0.03    -0.05  -0.04  -0.08     0.00   0.00   0.00
  41   1     0.00  -0.02   0.00    -0.00  -0.05   0.01    -0.00  -0.00   0.00
  42   1    -0.14   0.01  -0.03    -0.39   0.03  -0.09     0.00   0.00   0.00
  43   1     0.07  -0.22   0.08     0.22  -0.68   0.25     0.00  -0.01   0.00
  44   1     0.01  -0.02   0.01     0.03  -0.09   0.03     0.00  -0.01   0.00
  45   1    -0.03  -0.01   0.04    -0.07  -0.02   0.10    -0.01  -0.00   0.01
  46   1    -0.00   0.02  -0.01    -0.01   0.05  -0.01     0.02  -0.08   0.03
  47   1    -0.01  -0.05  -0.05    -0.03  -0.19  -0.19     0.00   0.04   0.03
  48   1    -0.00  -0.00  -0.00    -0.01  -0.00  -0.01     0.00   0.00   0.00
  49   1     0.00  -0.01   0.01     0.02  -0.04   0.03     0.00  -0.01   0.01
  50   1    -0.00  -0.00   0.00    -0.01  -0.01   0.01     0.00   0.00  -0.00
  51   1    -0.00   0.00  -0.00    -0.00   0.00  -0.01     0.01  -0.00   0.01
  52   1    -0.00   0.00   0.00    -0.00   0.01   0.00    -0.07   0.35   0.19
  53   1    -0.00  -0.00   0.00    -0.01  -0.02   0.02    -0.03  -0.08   0.04
  54   1     0.00   0.00  -0.00    -0.00  -0.01   0.00     0.00   0.01  -0.01
  55   1    -0.00   0.00   0.00    -0.01   0.00   0.00    -0.04   0.00   0.00
  56   6    -0.00  -0.00   0.00     0.00   0.00  -0.00     0.00   0.00  -0.00
  57   8     0.00   0.00  -0.00    -0.00  -0.00   0.00    -0.00  -0.00   0.00
  58   6    -0.00  -0.00  -0.00     0.00   0.00   0.00    -0.00   0.00  -0.00
  59   8     0.00   0.00   0.00    -0.00  -0.00  -0.00    -0.00  -0.00   0.00
                    169                    170                    171
                        a                      a                      a 
 Frequencies --  2997.7013              2998.9124              2999.1147
 Red. masses --     1.6301                 1.5805                 1.5815
 Frc consts  --     0.0000                 0.0000                 0.0000
 IR Inten    --    68.9148                41.5813                40.0557
 Raman Activ --     0.0000                 0.0000                 0.0000
 Depolar     --     0.0000                 0.0000                 0.0000
 Atom AN      X      Y      Z        X      Y      Z        X      Y      Z
   1  28     0.00  -0.00  -0.00    -0.00   0.00  -0.00     0.00  -0.00   0.00
   2   7    -0.00  -0.00  -0.00     0.00  -0.00  -0.00     0.00  -0.00  -0.00
   3   6     0.00  -0.00  -0.00    -0.00   0.00   0.00    -0.00   0.00   0.00
   4   7    -0.00  -0.00   0.00    -0.00  -0.00  -0.00    -0.00  -0.00  -0.00
   5   6     0.00   0.00  -0.00    -0.00   0.00   0.00    -0.00   0.01   0.00
   6   6     0.00   0.00  -0.00    -0.00   0.01  -0.00    -0.00   0.04  -0.00
   7   6     0.00   0.00   0.00     0.00   0.01   0.00     0.01   0.05   0.02
   8   6    -0.00   0.00   0.00    -0.02   0.03   0.02    -0.08   0.17   0.09
   9   6     0.00  -0.00  -0.00    -0.00   0.01   0.00    -0.02   0.04   0.01
  10   6     0.00  -0.00  -0.01    -0.00   0.00   0.00     0.00   0.00  -0.00
  11   6    -0.02   0.04  -0.09     0.00  -0.00   0.01    -0.00   0.01  -0.02
  12   6    -0.01   0.00  -0.00     0.00  -0.00   0.00    -0.00   0.00  -0.00
  13   1    -0.00  -0.00   0.01     0.00   0.00  -0.00     0.01   0.00  -0.01
  14   1     0.00  -0.00  -0.00    -0.00  -0.01   0.00    -0.00  -0.03   0.01
  15   1    -0.01   0.00   0.00    -0.00   0.00  -0.00    -0.02   0.01   0.00
  16   1     0.00  -0.00   0.00     0.01  -0.02   0.00     0.04  -0.13   0.02
  17   1    -0.00   0.01  -0.00     0.00  -0.02   0.00     0.02  -0.08   0.01
  18   1    -0.01  -0.01  -0.01    -0.01  -0.01  -0.02    -0.07  -0.07  -0.09
  19   1     0.00  -0.01   0.00     0.04  -0.16   0.01     0.21  -0.76   0.07
  20   1     0.00   0.00  -0.01     0.01   0.04  -0.09     0.06   0.16  -0.40
  21   1     0.00  -0.00   0.00     0.00   0.00  -0.00     0.02   0.01  -0.01
  22   1    -0.00   0.00   0.00     0.01  -0.03  -0.00     0.06  -0.14  -0.02
  23   1    -0.00  -0.01  -0.00     0.00   0.00   0.00    -0.00  -0.01  -0.00
  24   1    -0.01   0.01   0.01     0.00  -0.00  -0.00    -0.00   0.00   0.00
  25   1     0.05  -0.24   0.34    -0.01   0.03  -0.04     0.01  -0.06   0.08
  26   1     0.03   0.10   0.01    -0.00  -0.01  -0.00     0.00   0.02  -0.00
  27   1    -0.00  -0.01  -0.00     0.00   0.00   0.00    -0.00  -0.01  -0.00
  28   1     0.04   0.00   0.01    -0.01  -0.00  -0.00     0.01   0.00   0.00
  29   7    -0.00   0.00  -0.00    -0.00   0.00  -0.00     0.00  -0.00   0.00
  30   6    -0.00   0.00  -0.00     0.00  -0.00   0.00    -0.00   0.00  -0.00
  31   7     0.00   0.00   0.00     0.00   0.00  -0.00     0.00  -0.00   0.00
  32   6    -0.00  -0.00  -0.00     0.00  -0.01   0.00     0.00   0.00  -0.00
  33   6    -0.00   0.00  -0.00     0.00  -0.04   0.01    -0.00   0.01  -0.00
  34   6    -0.00   0.00  -0.00    -0.01  -0.03   0.04     0.00   0.01  -0.01
  35   6    -0.00   0.01  -0.01     0.06  -0.11   0.16    -0.01   0.02  -0.03
  36   6    -0.00   0.00  -0.00     0.02  -0.03   0.03    -0.00   0.01  -0.01
  37   6    -0.00  -0.01  -0.01    -0.00  -0.00   0.00     0.00   0.00   0.00
  38   6     0.06  -0.15  -0.13     0.01  -0.02  -0.01    -0.00   0.01   0.01
  39   6     0.02  -0.01  -0.00     0.00  -0.00   0.00    -0.00   0.00  -0.00
  40   1     0.01   0.01   0.01    -0.01  -0.01  -0.01    -0.00   0.00  -0.00
  41   1    -0.00  -0.00  -0.00     0.00   0.03  -0.00    -0.00  -0.01   0.00
  42   1     0.02   0.00   0.00     0.02  -0.00   0.01    -0.01   0.00  -0.00
  43   1     0.00  -0.00   0.00    -0.04   0.13  -0.05     0.01  -0.03   0.01
  44   1     0.00  -0.01   0.01    -0.02   0.08  -0.03     0.00  -0.02   0.01
  45   1     0.00   0.00  -0.01     0.08   0.03  -0.11    -0.02  -0.01   0.02
  46   1     0.02  -0.05   0.02    -0.20   0.71  -0.29     0.04  -0.14   0.06
  47   1     0.00   0.01   0.01    -0.03  -0.33  -0.29     0.01   0.06   0.05
  48   1     0.00   0.00   0.00    -0.02  -0.01  -0.01     0.01   0.00   0.00
  49   1     0.00  -0.01   0.01    -0.06   0.12  -0.09     0.01  -0.02   0.02
  50   1     0.00   0.01  -0.01     0.00   0.01  -0.00    -0.00  -0.00   0.00
  51   1     0.02  -0.01   0.03     0.00  -0.00   0.00    -0.00   0.00  -0.00
  52   1    -0.14   0.73   0.38    -0.02   0.08   0.04     0.01  -0.07  -0.04
  53   1    -0.06  -0.18   0.10    -0.00  -0.01   0.01     0.00   0.01  -0.01
  54   1     0.01   0.01  -0.01     0.00   0.01  -0.00    -0.00  -0.00   0.00
  55   1    -0.08   0.00   0.01    -0.01  -0.00   0.00     0.01  -0.00  -0.00
  56   6    -0.00  -0.00   0.00    -0.00  -0.00   0.00     0.00   0.00  -0.00
  57   8     0.00   0.00  -0.00     0.00   0.00  -0.00    -0.00  -0.00   0.00
  58   6     0.00   0.00   0.00    -0.00  -0.00  -0.00     0.00   0.00   0.00
  59   8    -0.00  -0.00  -0.00     0.00   0.00   0.00    -0.00  -0.00  -0.00
