      -----------------------------------------------------------      
     |                   =====================                   |     
     |                           x T B                           |     
     |                   =====================                   |     
     |                         S. Grimme                         |     
     |          Mulliken Center for Theoretical Chemistry        |     
     |                    University of Bonn                     |     
      -----------------------------------------------------------      

   * xtb version 6.5.0 (97a52f5) compiled by 'conda@d2599ee0d4f4' on 2022-05-15

   xtb is free software: you can redistribute it and/or modify it under
   the terms of the GNU Lesser General Public License as published by
   the Free Software Foundation, either version 3 of the License, or
   (at your option) any later version.
   
   xtb is distributed in the hope that it will be useful,
   but WITHOUT ANY WARRANTY; without even the implied warranty of
   MERCHANTABILITY or FITNESS FOR A PARTICULAR PURPOSE.  See the
   GNU Lesser General Public License for more details.
   
   Cite this work as:
   * C. Bannwarth, E. Caldeweyher, S. Ehlert, A. Hansen, P. Pracht,
     J. Seibert, S. Spicher, S. Grimme, WIREs Comput. Mol. Sci., 2020, 11,
     e01493. DOI: 10.1002/wcms.1493
   
   for GFN2-xTB:
   * C. Bannwarth, S. Ehlert and S. Grimme., J. Chem. Theory Comput., 2019,
     15, 1652-1671. DOI: 10.1021/acs.jctc.8b01176
   for GFN1-xTB:
   * S. Grimme, C. Bannwarth, P. Shushkov, J. Chem. Theory Comput., 2017,
     13, 1989-2009. DOI: 10.1021/acs.jctc.7b00118
   for GFN0-xTB:
   * P. Pracht, E. Caldeweyher, S. Ehlert, S. Grimme, ChemRxiv, 2019, preprint.
     DOI: 10.26434/chemrxiv.8326202.v1
   for GFN-FF:
   * S. Spicher and S. Grimme, Angew. Chem. Int. Ed., 2020, 59, 15665-15673.
     DOI: 10.1002/anie.202004239
   
   for ALPB and GBSA implicit solvation:
   * S. Ehlert, M. Stahn, S. Spicher, S. Grimme, J. Chem. Theory Comput.,
     2021, 17, 4250-4261. DOI: 10.1021/acs.jctc.1c00471
   
   for DFT-D4:
   * E. Caldeweyher, C. Bannwarth and S. Grimme, J. Chem. Phys., 2017,
     147, 034112. DOI: 10.1063/1.4993215
   * E. Caldeweyher, S. Ehlert, A. Hansen, H. Neugebauer, S. Spicher,
     C. Bannwarth and S. Grimme, J. Chem. Phys., 2019, 150, 154122.
     DOI: 10.1063/1.5090222
   * E. Caldeweyher, J.-M. Mewes, S. Ehlert and S. Grimme, Phys. Chem. Chem. Phys.
     2020, 22, 8499-8512. DOI: 10.1039/D0CP00502A
   
   for sTDA-xTB:
   * S. Grimme and C. Bannwarth, J. Chem. Phys., 2016, 145, 054103.
     DOI: 10.1063/1.4959605
   
   in the mass-spec context:
   * V. Asgeirsson, C. Bauer and S. Grimme, Chem. Sci., 2017, 8, 4879.
     DOI: 10.1039/c7sc00601b
   * J. Koopman and S. Grimme, ACS Omega 2019, 4, 12, 15120-15133.
     DOI: 10.1021/acsomega.9b02011
   
   for metadynamics refer to:
   * S. Grimme, J. Chem. Theory Comput., 2019, 155, 2847-2862
     DOI: 10.1021/acs.jctc.9b00143
   
   for SPH calculations refer to:
   * S. Spicher and S. Grimme, J. Chem. Theory Comput., 2021, 17, 1701-1714
     DOI: 10.1021/acs.jctc.0c01306
   
   with help from (in alphabetical order)
   P. Atkinson, C. Bannwarth, F. Bohle, G. Brandenburg, E. Caldeweyher
   M. Checinski, S. Dohm, S. Ehlert, S. Ehrlich, I. Gerasimov, C. Hölzer
   A. Katbashev, J. Koopman, C. Lavigne, S. Lehtola, F. März, M. Müller,
   F. Musil, H. Neugebauer, J. Pisarek, C. Plett, P. Pracht, F. Pultar,
   J. Seibert, P. Shushkov, S. Spicher, M. Stahn, M. Steiner, T. Strunk,
   J. Stückrath, T. Rose, and J. Unsleber
   
 * started run on 2022/05/27 at 18:12:01.674     

           -------------------------------------------------
          |                Calculation Setup                |
           -------------------------------------------------

          program call               : xtb struc.xyz --gfn2 --hess
          hostname                   : fedora
          coordinate file            : struc.xyz
          omp threads                :                     1

   ID    Z sym.   atoms
    1   28 Ni     1
    2    7 N      2, 4, 29, 31
    3    6 C      3, 5-12, 30, 32-39, 56, 58
    4    1 H      13-28, 40-55
    5    8 O      57, 59

molecular fragmentation (1/2 indicates fragments):
11111111111111111111111111111111111111111111111111111111122
# atoms in fragment 1/2:    57     2
 fragment masses (1/2) :      391.18       28.01
CMA distance (Bohr)    :   6.039
constraining FC (au)   :  0.0500

           -------------------------------------------------
          |                 G F N 2 - x T B                 |
           -------------------------------------------------

        Reference                      10.1021/acs.jctc.8b01176
      * Hamiltonian:
        H0-scaling (s, p, d)           1.850000    2.230000    2.230000
        zeta-weighting                 0.500000
      * Dispersion:
        s8                             2.700000
        a1                             0.520000
        a2                             5.000000
        s9                             5.000000
      * Repulsion:
        kExp                           1.500000    1.000000
        rExp                           1.000000
      * Coulomb:
        alpha                          2.000000
        third order                    shell-resolved
        anisotropic                    true
        a3                             3.000000
        a5                             4.000000
        cn-shift                       1.200000
        cn-exp                         4.000000
        max-rad                        5.000000


          ...................................................
          :                      SETUP                      :
          :.................................................:
          :  # basis functions                 146          :
          :  # atomic orbitals                 145          :
          :  # shells                           87          :
          :  # electrons                       154          :
          :  max. iterations                   250          :
          :  Hamiltonian                  GFN2-xTB          :
          :  restarted?                      false          :
          :  GBSA solvation                  false          :
          :  PC potential                    false          :
          :  electronic temp.          300.0000000     K    :
          :  accuracy                    1.0000000          :
          :  -> integral cutoff          0.2500000E+02      :
          :  -> integral neglect         0.1000000E-07      :
          :  -> SCF convergence          0.1000000E-05 Eh   :
          :  -> wf. convergence          0.1000000E-03 e    :
          :  Broyden damping             0.4000000          :
          ...................................................

 iter      E             dE          RMSdq      gap      omega  full diag
   1    -84.6604793 -0.846605E+02  0.461E+00    3.95       0.0  T
   2    -84.8731910 -0.212712E+00  0.257E+00    3.02       1.0  T
   3    -84.8805014 -0.731034E-02  0.127E+00    2.12       1.0  T
   4    -84.9168117 -0.363104E-01  0.705E-01    2.32       1.0  T
   5    -84.9172973 -0.485593E-03  0.251E-01    2.38       1.0  T
   6    -84.9185421 -0.124480E-02  0.180E-01    2.34       1.0  T
   7    -84.9187600 -0.217855E-03  0.850E-02    2.36       1.0  T
   8    -84.9187811 -0.210956E-04  0.344E-02    2.36       1.0  T
   9    -84.9187927 -0.116027E-04  0.143E-02    2.36       1.0  T
  10    -84.9187915  0.112725E-05  0.675E-03    2.36       1.9  T
  11    -84.9187940 -0.248156E-05  0.262E-03    2.36       5.0  T
  12    -84.9187943 -0.258069E-06  0.144E-03    2.36       9.1  T
  13    -84.9187943  0.470422E-08  0.100E-03    2.36      13.0  T
  14    -84.9187943 -0.124082E-07  0.684E-04    2.36      19.0  T
  15    -84.9187943 -0.116174E-09  0.475E-04    2.36      27.4  T

   *** convergence criteria satisfied after 15 iterations ***

         #    Occupation            Energy/Eh            Energy/eV
      -------------------------------------------------------------
         1        2.0000           -0.7167334             -19.5033
       ...           ...                  ...                  ...
        71        2.0000           -0.3629124              -9.8753
        72        2.0000           -0.3603401              -9.8054
        73        2.0000           -0.3297663              -8.9734
        74        2.0000           -0.3282137              -8.9311
        75        2.0000           -0.3197731              -8.7015
        76        2.0000           -0.3131402              -8.5210
        77        2.0000           -0.3092814              -8.4160 (HOMO)
        78                         -0.2225287              -6.0553 (LUMO)
        79                         -0.2177958              -5.9265
        80                         -0.2016944              -5.4884
        81                         -0.1997131              -5.4345
        82                         -0.1918230              -5.2198
       ...                                ...                  ...
       145                          1.2225134              33.2663
      -------------------------------------------------------------
                  HL-Gap            0.0867527 Eh            2.3607 eV
             Fermi-level           -0.2659051 Eh           -7.2356 eV

 SCC (total)                   0 d,  0 h,  0 min,  0.912 sec
 SCC setup                      ...        0 min,  0.000 sec (  0.029%)
 Dispersion                     ...        0 min,  0.005 sec (  0.541%)
 classical contributions        ...        0 min,  0.000 sec (  0.016%)
 integral evaluation            ...        0 min,  0.076 sec (  8.375%)
 iterations                     ...        0 min,  0.465 sec ( 50.971%)
 molecular gradient             ...        0 min,  0.365 sec ( 40.007%)
 printout                       ...        0 min,  0.001 sec (  0.061%)

         :::::::::::::::::::::::::::::::::::::::::::::::::::::
         ::                     SUMMARY                     ::
         :::::::::::::::::::::::::::::::::::::::::::::::::::::
         :: total energy             -83.871848376111 Eh    ::
         :: gradient norm              0.000175415145 Eh/a0 ::
         :: HOMO-LUMO gap              2.360660168430 eV    ::
         ::.................................................::
         :: SCC energy               -84.918794293046 Eh    ::
         :: -> isotropic ES            0.077722584811 Eh    ::
         :: -> anisotropic ES          0.017059254821 Eh    ::
         :: -> anisotropic XC          0.038072246815 Eh    ::
         :: -> dispersion             -0.067448770661 Eh    ::
         :: repulsion energy           1.045476291905 Eh    ::
         :: add. restraining           0.000000000000 Eh    ::
         :: total charge               0.000000000000 e     ::
         :::::::::::::::::::::::::::::::::::::::::::::::::::::

           ------------------------------------------------- 
          |                Numerical Hessian                |
           ------------------------------------------------- 
step length          :   0.00500
SCC accuracy         :   0.30000
Hessian scale factor :   1.00000
frozen atoms in %    :   0.00000    0
RMS gradient         :   0.00016
estimated CPU  time      0.38 min
estimated wall time      2.73 min

writing file <hessian>.

 projected vibrational frequencies (cm⁻¹)
eigval :       -0.00    -0.00    -0.00     0.00     0.00     0.00
eigval :       12.92    16.99    21.49    24.04    39.81    43.34
eigval :       48.43    49.77    63.49    73.06    75.15    86.89
eigval :       93.73   100.78   116.42   164.66   173.69   175.21
eigval :      178.18   221.21   232.12   236.96   249.38   250.50
eigval :      260.76   289.27   291.36   318.50   353.42   354.31
eigval :      367.57   368.16   377.29   381.85   416.89   417.41
eigval :      424.49   481.42   481.65   492.65   510.70   511.49
eigval :      512.21   515.52   531.45   601.52   602.76   675.05
eigval :      675.63   735.50   737.33   846.67   846.73   860.76
eigval :      861.39   877.26   877.36   896.82   900.19   906.27
eigval :      906.31   927.50   927.83   951.53   953.06   980.47
eigval :      980.49   995.48   995.90  1025.71  1026.24  1053.18
eigval :     1053.90  1088.81  1089.42  1100.50  1101.19  1114.02
eigval :     1114.57  1128.62  1129.86  1142.40  1142.65  1145.53
eigval :     1146.07  1161.50  1163.77  1190.96  1194.04  1200.78
eigval :     1201.35  1216.76  1219.01  1233.85  1233.91  1242.94
eigval :     1243.25  1256.25  1257.12  1271.00  1271.90  1305.87
eigval :     1307.21  1316.71  1316.81  1329.19  1330.33  1337.22
eigval :     1337.36  1340.97  1341.42  1344.78  1345.13  1354.50
eigval :     1354.57  1361.25  1361.51  1414.37  1415.63  1440.43
eigval :     1441.64  1471.36  1475.77  1476.19  1476.47  1476.52
eigval :     1479.26  1479.53  1483.49  1489.26  1489.35  1494.03
eigval :     1497.03  1499.28  1499.32  1652.49  1660.41  1969.68
eigval :     1997.24  2871.08  2871.44  2895.70  2896.91  2897.23
eigval :     2898.08  2926.12  2926.45  2930.03  2930.32  2955.85
eigval :     2956.05  2966.67  2966.74  2970.82  2970.90  2972.13
eigval :     2972.60  2975.26  2975.42  2977.58  2977.74  2978.42
eigval :     2978.50  2985.96  2986.19  2989.07  2989.18  2997.59
eigval :     2997.70  2998.91  2999.11
           -------------------------------------------------
          |                Property Printout                |
           -------------------------------------------------

    * Orbital Energies and Occupations

         #    Occupation            Energy/Eh            Energy/eV
      -------------------------------------------------------------
         1        2.0000           -0.7167393             -19.5035
       ...           ...                  ...                  ...
        65        2.0000           -0.4211461             -11.4600
        66        2.0000           -0.4201204             -11.4321
        67        2.0000           -0.4179893             -11.3741
        68        2.0000           -0.4154076             -11.3038
        69        2.0000           -0.3848664             -10.4727
        70        2.0000           -0.3819676             -10.3939
        71        2.0000           -0.3629105              -9.8753
        72        2.0000           -0.3603382              -9.8053
        73        2.0000           -0.3297593              -8.9732
        74        2.0000           -0.3282063              -8.9309
        75        2.0000           -0.3197658              -8.7013
        76        2.0000           -0.3131328              -8.5208
        77        2.0000           -0.3092763              -8.4158 (HOMO)
        78                         -0.2225351              -6.0555 (LUMO)
        79                         -0.2178020              -5.9267
        80                         -0.2016992              -5.4885
        81                         -0.1997177              -5.4346
        82                         -0.1918227              -5.2198
        83                         -0.1915243              -5.2116
        84                         -0.0105466              -0.2870
        85                         -0.0097014              -0.2640
        86                          0.0519831               1.4145
        87                          0.0535518               1.4572
        88                          0.0660272               1.7967
       ...                                ...                  ...
       145                          1.2225129              33.2663
      -------------------------------------------------------------
                  HL-Gap            0.0867412 Eh            2.3603 eV
             Fermi-level           -0.2659057 Eh           -7.2357 eV

     #   Z          covCN         q      C6AA      α(0)
     1  28 Ni       2.908    -0.872   202.503    29.362
     2   7 N        2.403    -0.113    23.595     7.213
     3   6 C        2.846     0.152    24.692     8.144
     4   7 N        2.739    -0.101    23.219     7.157
     5   6 C        3.747     0.001    20.627     6.478
     6   6 C        3.801    -0.061    21.674     6.628
     7   6 C        3.802    -0.058    21.609     6.618
     8   6 C        3.803    -0.052    21.508     6.603
     9   6 C        3.812    -0.071    21.841     6.652
    10   6 C        3.754     0.011    20.439     6.447
    11   6 C        3.806    -0.065    21.747     6.639
    12   6 C        3.766     0.020    20.282     6.419
    13   1 H        0.924     0.038     2.481     2.463
    14   1 H        0.924     0.045     2.379     2.412
    15   1 H        0.924     0.033     2.546     2.495
    16   1 H        0.924     0.041     2.434     2.440
    17   1 H        0.924     0.030     2.584     2.514
    18   1 H        0.924     0.033     2.538     2.491
    19   1 H        0.924     0.049     2.329     2.387
    20   1 H        0.924     0.041     2.441     2.443
    21   1 H        0.923     0.115     1.658     2.014
    22   1 H        0.924     0.039     2.465     2.455
    23   1 H        0.923     0.032     2.565     2.505
    24   1 H        0.924     0.032     2.562     2.503
    25   1 H        0.925     0.034     2.535     2.490
    26   1 H        0.924     0.037     2.488     2.467
    27   1 H        0.923     0.036     2.507     2.476
    28   1 H        0.924     0.065     2.142     2.289
    29   7 N        2.403    -0.113    23.593     7.213
    30   6 C        2.847     0.152    24.691     8.144
    31   7 N        2.739    -0.101    23.222     7.157
    32   6 C        3.747     0.001    20.627     6.478
    33   6 C        3.801    -0.061    21.674     6.628
    34   6 C        3.802    -0.058    21.609     6.618
    35   6 C        3.803    -0.052    21.507     6.602
    36   6 C        3.812    -0.071    21.842     6.652
    37   6 C        3.754     0.011    20.438     6.446
    38   6 C        3.806    -0.065    21.747     6.639
    39   6 C        3.766     0.020    20.282     6.419
    40   1 H        0.924     0.038     2.481     2.463
    41   1 H        0.924     0.045     2.378     2.412
    42   1 H        0.924     0.033     2.546     2.495
    43   1 H        0.924     0.041     2.434     2.440
    44   1 H        0.924     0.030     2.584     2.514
    45   1 H        0.924     0.033     2.538     2.491
    46   1 H        0.924     0.049     2.329     2.387
    47   1 H        0.924     0.041     2.441     2.443
    48   1 H        0.924     0.114     1.659     2.015
    49   1 H        0.924     0.039     2.466     2.456
    50   1 H        0.923     0.031     2.566     2.505
    51   1 H        0.924     0.032     2.562     2.503
    52   1 H        0.925     0.034     2.535     2.490
    53   1 H        0.924     0.037     2.488     2.467
    54   1 H        0.923     0.036     2.506     2.476
    55   1 H        0.924     0.065     2.140     2.288
    56   6 C        1.740     0.271    25.065     8.099
    57   8 O        0.856    -0.197    18.021     5.692
    58   6 C        1.740     0.271    25.065     8.099
    59   8 O        0.856    -0.197    18.023     5.692

 Mol. C6AA /au·bohr⁶  :      34083.627083
 Mol. C8AA /au·bohr⁸  :     865300.626676
 Mol. α(0) /au        :        284.623183


Wiberg/Mayer (AO) data.
largest (>0.10) Wiberg bond orders for each atom

 ---------------------------------------------------------------------------
     #   Z sym  total        # sym  WBO       # sym  WBO       # sym  WBO
 ---------------------------------------------------------------------------
     1  28 Ni   3.972 --    58 C    1.179    56 C    1.179     2 N    0.444
                            29 N    0.443    59 O    0.216    57 O    0.216
     2   7 N    3.426 --     3 C    1.631    12 C    1.005     1 Ni   0.444
                             4 N    0.160
     3   6 C    3.966 --     2 N    1.631     4 N    1.212     9 C    0.998
     4   7 N    3.453 --     3 C    1.212     5 C    0.993    10 C    0.989
                             2 N    0.160
     5   6 C    3.976 --     6 C    0.994     4 N    0.993    13 H    0.972
                            14 H    0.963
     6   6 C    3.996 --     7 C    1.009     5 C    0.994    15 H    0.977
                            16 H    0.976
     7   6 C    3.997 --     8 C    1.009     6 C    1.009    18 H    0.976
                            17 H    0.976
     8   6 C    3.995 --     7 C    1.009     9 C    0.989    20 H    0.975
                            19 H    0.974
     9   6 C    3.992 --     3 C    0.998     8 C    0.989    22 H    0.963
                            21 H    0.909
    10   6 C    3.980 --    11 C    1.005     4 N    0.989    24 H    0.969
                            23 H    0.967
    11   6 C    3.996 --    10 C    1.005    12 C    0.998    26 H    0.977
                            25 H    0.976
    12   6 C    3.989 --     2 N    1.005    11 C    0.998    27 H    0.959
                            28 H    0.954
    13   1 H    0.998 --     5 C    0.972
    14   1 H    0.998 --     5 C    0.963
    15   1 H    0.999 --     6 C    0.977
    16   1 H    0.998 --     6 C    0.976
    17   1 H    0.999 --     7 C    0.976
    18   1 H    0.999 --     7 C    0.976
    19   1 H    0.998 --     8 C    0.974
    20   1 H    0.998 --     8 C    0.975
    21   1 H    0.987 --     9 C    0.909
    22   1 H    0.998 --     9 C    0.963
    23   1 H    0.999 --    10 C    0.967
    24   1 H    0.999 --    10 C    0.969
    25   1 H    0.998 --    11 C    0.976
    26   1 H    0.999 --    11 C    0.977
    27   1 H    0.999 --    12 C    0.959
    28   1 H    0.996 --    12 C    0.954
    29   7 N    3.426 --    30 C    1.631    39 C    1.005     1 Ni   0.443
                            31 N    0.159
    30   6 C    3.966 --    29 N    1.631    31 N    1.212    36 C    0.998
    31   7 N    3.453 --    30 C    1.212    32 C    0.993    37 C    0.989
                            29 N    0.159
    32   6 C    3.976 --    33 C    0.994    31 N    0.993    40 H    0.972
                            41 H    0.963
    33   6 C    3.996 --    34 C    1.009    32 C    0.994    42 H    0.977
                            43 H    0.976
    34   6 C    3.997 --    35 C    1.009    33 C    1.009    45 H    0.976
                            44 H    0.976
    35   6 C    3.995 --    34 C    1.009    36 C    0.989    47 H    0.975
                            46 H    0.974
    36   6 C    3.992 --    30 C    0.998    35 C    0.989    49 H    0.963
                            48 H    0.909
    37   6 C    3.980 --    38 C    1.005    31 N    0.989    51 H    0.969
                            50 H    0.967
    38   6 C    3.996 --    37 C    1.005    39 C    0.998    53 H    0.977
                            52 H    0.976
    39   6 C    3.989 --    29 N    1.005    38 C    0.998    54 H    0.959
                            55 H    0.954
    40   1 H    0.998 --    32 C    0.972
    41   1 H    0.998 --    32 C    0.963
    42   1 H    0.999 --    33 C    0.977
    43   1 H    0.998 --    33 C    0.976
    44   1 H    0.999 --    34 C    0.976
    45   1 H    0.999 --    34 C    0.976
    46   1 H    0.998 --    35 C    0.974
    47   1 H    0.998 --    35 C    0.975
    48   1 H    0.987 --    36 C    0.909
    49   1 H    0.998 --    36 C    0.963
    50   1 H    0.999 --    37 C    0.967
    51   1 H    0.999 --    37 C    0.969
    52   1 H    0.998 --    38 C    0.976
    53   1 H    0.999 --    38 C    0.977
    54   1 H    0.999 --    39 C    0.959
    55   1 H    0.996 --    39 C    0.954
    56   6 C    3.504 --    57 O    2.205     1 Ni   1.179
    57   8 O    2.485 --    56 C    2.205     1 Ni   0.216
    58   6 C    3.504 --    59 O    2.205     1 Ni   1.179
    59   8 O    2.485 --    58 C    2.205     1 Ni   0.216
 ---------------------------------------------------------------------------

Topologies differ in total number of bonds
Writing topology from bond orders to xtbtopo.mol

molecular dipole:
                 x           y           z       tot (Debye)
 q only:       -0.099       0.494       2.179
   full:       -0.124       0.627       2.761       7.204
molecular quadrupole (traceless):
                xx          xy          yy          xz          yz          zz
 q only:       27.285      -7.420     -15.339       3.494       0.470     -11.946
  q+dip:       30.721      -4.347     -13.965       3.157      -0.891     -16.756
   full:       30.899      -5.806     -16.120       3.399       0.049     -14.779

           -------------------------------------------------
          |               Frequency Printout                |
           -------------------------------------------------
 projected vibrational frequencies (cm⁻¹)
eigval :       -0.00    -0.00    -0.00     0.00     0.00     0.00
eigval :       12.92    16.99    21.49    24.04    39.81    43.34
eigval :       48.43    49.77    63.49    73.06    75.15    86.89
eigval :       93.73   100.78   116.42   164.66   173.69   175.21
eigval :      178.18   221.21   232.12   236.96   249.38   250.50
eigval :      260.76   289.27   291.36   318.50   353.42   354.31
eigval :      367.57   368.16   377.29   381.85   416.89   417.41
eigval :      424.49   481.42   481.65   492.65   510.70   511.49
eigval :      512.21   515.52   531.45   601.52   602.76   675.05
eigval :      675.63   735.50   737.33   846.67   846.73   860.76
eigval :      861.39   877.26   877.36   896.82   900.19   906.27
eigval :      906.31   927.50   927.83   951.53   953.06   980.47
eigval :      980.49   995.48   995.90  1025.71  1026.24  1053.18
eigval :     1053.90  1088.81  1089.42  1100.50  1101.19  1114.02
eigval :     1114.57  1128.62  1129.86  1142.40  1142.65  1145.53
eigval :     1146.07  1161.50  1163.77  1190.96  1194.04  1200.78
eigval :     1201.35  1216.76  1219.01  1233.85  1233.91  1242.94
eigval :     1243.25  1256.25  1257.12  1271.00  1271.90  1305.87
eigval :     1307.21  1316.71  1316.81  1329.19  1330.33  1337.22
eigval :     1337.36  1340.97  1341.42  1344.78  1345.13  1354.50
eigval :     1354.57  1361.25  1361.51  1414.37  1415.63  1440.43
eigval :     1441.64  1471.36  1475.77  1476.19  1476.47  1476.52
eigval :     1479.26  1479.53  1483.49  1489.26  1489.35  1494.03
eigval :     1497.03  1499.28  1499.32  1652.49  1660.41  1969.68
eigval :     1997.24  2871.08  2871.44  2895.70  2896.91  2897.23
eigval :     2898.08  2926.12  2926.45  2930.03  2930.32  2955.85
eigval :     2956.05  2966.67  2966.74  2970.82  2970.90  2972.13
eigval :     2972.60  2975.26  2975.42  2977.58  2977.74  2978.42
eigval :     2978.50  2985.96  2986.19  2989.07  2989.18  2997.59
eigval :     2997.70  2998.91  2999.11
 reduced masses (amu)
   1: 12.61   2: 18.02   3: 18.03   4: 13.56   5: 12.39   6: 15.97   7: 14.79   8: 14.47
   9:  9.88  10: 13.36  11: 12.91  12: 14.34  13: 15.28  14: 16.56  15: 17.10  16: 11.45
  17: 10.19  18: 12.30  19:  9.98  20: 16.27  21: 10.75  22: 36.81  23:  9.79  24:  9.44
  25: 29.92  26: 15.15  27:  9.54  28: 10.33  29:  9.03  30:  8.88  31: 14.25  32:  8.35
  33:  8.34  34: 21.70  35: 10.20  36:  9.67  37:  8.86  38:  9.07  39:  8.72  40:  8.48
  41: 10.42  42:  8.30  43: 20.15  44:  9.71  45:  9.95  46: 12.82  47:  9.46  48:  6.03
  49:  8.95  50:  9.87  51: 24.09  52:  9.63  53:  9.56  54:  8.82  55:  8.81  56: 10.00
  57:  9.98  58:  6.65  59:  6.65  60:  6.03  61:  6.05  62:  6.61  63:  6.61  64:  4.19
  65:  4.28  66:  7.10  67:  7.11  68:  6.14  69:  6.19  70:  8.48  71:  8.49  72:  7.25
  73:  7.25  74:  7.64  75:  7.64  76:  7.57  77:  7.49  78:  6.44  79:  6.44  80:  6.26
  81:  6.29  82:  6.93  83:  6.93  84:  6.17  85:  5.99  86:  7.27  87:  7.55  88:  7.33
  89:  7.37  90:  8.02  91:  7.96  92:  3.90  93:  4.06  94:  3.74  95:  3.60  96:  4.38
  97:  4.39  98:  4.46  99:  4.59 100:  4.04 101:  4.12 102:  3.12 103:  3.05 104:  4.05
 105:  3.78 106:  5.35 107:  5.47 108:  4.30 109:  4.16 110:  4.78 111:  4.80 112:  4.86
 113:  4.79 114:  4.53 115:  4.57 116:  5.87 117:  5.81 118:  4.51 119:  4.54 120:  4.91
 121:  4.91 122:  5.01 123:  5.00 124:  7.61 125:  7.71 126:  3.82 127:  3.82 128:  2.04
 129:  1.95 130:  1.94 131:  1.94 132:  1.97 133:  2.19 134:  2.22 135:  1.99 136:  1.96
 137:  1.96 138:  2.14 139:  2.06 140:  1.96 141:  1.97 142: 12.25 143: 12.31 144: 13.64
 145: 13.64 146:  1.84 147:  1.84 148:  1.75 149:  1.78 150:  1.78 151:  1.75 152:  1.78
 153:  1.78 154:  1.60 155:  1.60 156:  1.86 157:  1.86 158:  1.73 159:  1.73 160:  1.74
 161:  1.74 162:  1.65 163:  1.65 164:  1.71 165:  1.71 166:  1.87 167:  1.87 168:  1.82
 169:  1.83 170:  1.78 171:  1.78 172:  1.58 173:  1.58 174:  1.63 175:  1.63 176:  1.58
 177:  1.58
 IR intensities (km·mol⁻¹)
   1:  0.07   2:  0.08   3:  0.10   4:  0.34   5:  1.00   6:  0.87   7:  0.74   8:  1.37
   9:  0.08  10:  0.34  11:  0.18  12:  0.00  13:  0.03  14:  0.14  15:  0.93  16:  1.17
  17:  0.83  18:  1.13  19:  1.22  20:  0.45  21:  0.04  22:  0.35  23:  2.94  24:  1.28
  25:  0.46  26:  4.21  27:  0.02  28:  0.01  29:  6.49  30:  1.15  31:  2.75  32:  0.93
  33:  1.15  34:  1.92  35:  1.02  36:  0.18  37:  0.08  38:  0.27  39:  3.60  40: 12.74
  41:  0.22  42: 11.64  43: 14.98  44:  3.59  45:  1.47  46:  1.44  47:  0.87  48:  1.41
  49:  6.76  50:  0.22  51:  4.97  52: 16.35  53:  2.60  54:  4.66  55:  8.89  56:  1.17
  57:  0.51  58:  1.38  59:  1.25  60:  5.93  61:  7.00  62:  2.89  63:  3.00  64:  1.02
  65:  0.27  66:  1.06  67:  1.55  68:  2.66  69:  7.88  70:  1.85  71:  0.82  72:  4.41
  73: 11.43  74:  0.03  75:  7.74  76: 29.70  77: 11.42  78: 12.80  79:  6.01  80: 13.21
  81:  4.21  82:  4.43  83: 14.89  84:  4.20  85:  0.32  86: 10.42  87: 16.91  88:  6.43
  89:  0.32  90:  1.53  91:  0.17  92:  5.21  93: 12.61  94: 22.55  95:  4.21  96:  7.93
  97:  5.21  98:  8.15  99:  1.44 100: 14.74 101:  0.51 102: 12.34 103:  5.53 104:  7.34
 105:  0.26 106: 34.25 107:  1.32 108: 77.12 109:  0.27 110:  2.00 111:  4.85 112:  8.08
 113:  2.57 114: 15.00 115:  6.93 116: 12.60 117: 57.04 118: 29.40 119:  1.58 120:  0.41
 121:  0.12 122: 15.15 123:  2.55 124:106.43 125: 61.00 126: 48.32 127: 16.37 128: 12.56
 129:  0.56 130:  2.49 131:  0.05 132:  0.08 133:  3.40 134:  2.99 135:  2.25 136:  5.36
 137:  5.44 138:  5.17 139:  0.19 140:  0.61 141:  0.18 142:****** 143:119.37 144:******
 145:665.93 146: 29.25 147: 31.75 148:  0.41 149: 15.73 150: 10.09 151: 37.78 152: 23.53
 153: 20.48 154: 52.29 155: 67.92 156: 17.35 157: 16.96 158:  5.65 159:  5.25 160: 24.48
 161: 10.19 162: 40.38 163: 10.58 164: 45.87 165: 53.64 166: 29.33 167: 32.83 168: 51.54
 169: 30.50 170:165.75 171: 42.93 172: 23.86 173: 82.45 174: 23.34 175: 68.91 176: 41.58
 177: 40.06
 Raman intensities (amu)
   1:  0.00   2:  0.00   3:  0.00   4:  0.00   5:  0.00   6:  0.00   7:  0.00   8:  0.00
   9:  0.00  10:  0.00  11:  0.00  12:  0.00  13:  0.00  14:  0.00  15:  0.00  16:  0.00
  17:  0.00  18:  0.00  19:  0.00  20:  0.00  21:  0.00  22:  0.00  23:  0.00  24:  0.00
  25:  0.00  26:  0.00  27:  0.00  28:  0.00  29:  0.00  30:  0.00  31:  0.00  32:  0.00
  33:  0.00  34:  0.00  35:  0.00  36:  0.00  37:  0.00  38:  0.00  39:  0.00  40:  0.00
  41:  0.00  42:  0.00  43:  0.00  44:  0.00  45:  0.00  46:  0.00  47:  0.00  48:  0.00
  49:  0.00  50:  0.00  51:  0.00  52:  0.00  53:  0.00  54:  0.00  55:  0.00  56:  0.00
  57:  0.00  58:  0.00  59:  0.00  60:  0.00  61:  0.00  62:  0.00  63:  0.00  64:  0.00
  65:  0.00  66:  0.00  67:  0.00  68:  0.00  69:  0.00  70:  0.00  71:  0.00  72:  0.00
  73:  0.00  74:  0.00  75:  0.00  76:  0.00  77:  0.00  78:  0.00  79:  0.00  80:  0.00
  81:  0.00  82:  0.00  83:  0.00  84:  0.00  85:  0.00  86:  0.00  87:  0.00  88:  0.00
  89:  0.00  90:  0.00  91:  0.00  92:  0.00  93:  0.00  94:  0.00  95:  0.00  96:  0.00
  97:  0.00  98:  0.00  99:  0.00 100:  0.00 101:  0.00 102:  0.00 103:  0.00 104:  0.00
 105:  0.00 106:  0.00 107:  0.00 108:  0.00 109:  0.00 110:  0.00 111:  0.00 112:  0.00
 113:  0.00 114:  0.00 115:  0.00 116:  0.00 117:  0.00 118:  0.00 119:  0.00 120:  0.00
 121:  0.00 122:  0.00 123:  0.00 124:  0.00 125:  0.00 126:  0.00 127:  0.00 128:  0.00
 129:  0.00 130:  0.00 131:  0.00 132:  0.00 133:  0.00 134:  0.00 135:  0.00 136:  0.00
 137:  0.00 138:  0.00 139:  0.00 140:  0.00 141:  0.00 142:  0.00 143:  0.00 144:  0.00
 145:  0.00 146:  0.00 147:  0.00 148:  0.00 149:  0.00 150:  0.00 151:  0.00 152:  0.00
 153:  0.00 154:  0.00 155:  0.00 156:  0.00 157:  0.00 158:  0.00 159:  0.00 160:  0.00
 161:  0.00 162:  0.00 163:  0.00 164:  0.00 165:  0.00 166:  0.00 167:  0.00 168:  0.00
 169:  0.00 170:  0.00 171:  0.00 172:  0.00 173:  0.00 174:  0.00 175:  0.00 176:  0.00
 177:  0.00
 output can be read by thermo (or use thermo option).
 writing <g98.out> molden fake output.
Molecule has the following symmetry elements: (C2) 
It seems to be the C2 point group
 recommended (thermochemical) frequency scaling factor: 1.0
           -------------------------------------------------
          |             Thermodynamic Functions             |
           -------------------------------------------------

c2  symmetry found (for desy threshold:  0.10E+00) used in thermo

          ...................................................
          :                      SETUP                      :
          :.................................................:
          :  # frequencies                         171      :
          :  # imaginary freq.                       0      :
          :  linear?                             false      :
          :  only rotor calc.                    false      :
          :  symmetry                               c2      :
          :  rotational number                       2      :
          :  scaling factor                  1.0000000      :
          :  rotor cutoff                   50.0000000 cm⁻¹ :
          :  imag. cutoff                  -20.0000000 cm⁻¹ :
          :.................................................:

    mode    ω/cm⁻¹     T·S(HO)/kcal·mol⁻¹    T·S(FR)/kcal·mol⁻¹   T·S(vib)
   ------------------------------------------------------------------------
       1     12.92    -2.23673 (  0.44%)    -1.45734 ( 99.56%)    -1.46080
       2     16.99    -2.07447 (  1.32%)    -1.37620 ( 98.68%)    -1.38539
       3     21.49    -1.93536 (  3.30%)    -1.30661 ( 96.70%)    -1.32737
       4     24.04    -1.86912 (  5.07%)    -1.27346 ( 94.93%)    -1.30367
       5     39.81    -1.57074 ( 28.68%)    -1.12400 ( 71.32%)    -1.25211
       6     43.34    -1.52069 ( 36.07%)    -1.09890 ( 63.93%)    -1.25105
       7     48.43    -1.45513 ( 46.81%)    -1.06598 ( 53.19%)    -1.24815
       8     49.77    -1.43902 ( 49.54%)    -1.05789 ( 50.46%)    -1.24670
       9     63.49    -1.29569 ( 72.22%)    -0.98578 ( 27.78%)    -1.20959
      10     73.06    -1.21319 ( 82.01%)    -0.94417 ( 17.99%)    -1.16480
      11     75.15    -1.19671 ( 83.61%)    -0.93584 ( 16.39%)    -1.15396
      12     86.89    -1.11178 ( 90.12%)    -0.89283 (  9.88%)    -1.09015
      13     93.73    -1.06758 ( 92.51%)    -0.87038 (  7.49%)    -1.05281
      14    100.78    -1.02536 ( 94.29%)    -0.84888 (  5.71%)    -1.01528
      15    116.42    -0.94184 ( 96.71%)    -0.80616 (  3.29%)    -0.93738
      16    164.66    -0.74406 ( 99.16%)    -0.70347 (  0.84%)    -0.74372
      17    173.69    -0.71411 ( 99.32%)    -0.68764 (  0.68%)    -0.71393
      18    175.21    -0.70924 ( 99.34%)    -0.68506 (  0.66%)    -0.70908
      19    178.18    -0.69987 ( 99.38%)    -0.68009 (  0.62%)    -0.69975
      20    221.21    -0.58113 ( 99.74%)    -0.61600 (  0.26%)    -0.58123
      21    232.12    -0.55530 ( 99.79%)    -0.60175 (  0.21%)    -0.55540
      22    236.96    -0.54431 ( 99.80%)    -0.59564 (  0.20%)    -0.54441
      23    249.38    -0.51727 ( 99.84%)    -0.58050 (  0.16%)    -0.51737
      24    250.50    -0.51493 ( 99.84%)    -0.57917 (  0.16%)    -0.51503
      25    260.76    -0.49394 ( 99.86%)    -0.56728 (  0.14%)    -0.49404
      26    289.27    -0.44073 ( 99.91%)    -0.53654 (  0.09%)    -0.44081
      27    291.36    -0.43710 ( 99.91%)    -0.53441 (  0.09%)    -0.43718
   ------------------------------------------------------------------------

   temp. (K)  partition function   enthalpy   heat capacity  entropy
                                   cal/mol     cal/K/mol   cal/K/mol   J/K/mol
 298.15  VIB  0.104E+15            16489.768    101.467    106.512
         ROT  0.750E+07              888.752      2.981     34.440
         INT  0.777E+21            17378.521    104.448    140.953
         TR   0.830E+28             1481.254      4.968     43.970
         TOT                       18859.7747   109.4158   184.9225   773.7156

       T/K    H(0)-H(T)+PV         H(T)/Eh          T*S/Eh         G(T)/Eh
   ------------------------------------------------------------------------
    298.15    0.300550E-01    0.528593E+00    0.878626E-01    0.440730E+00
   ------------------------------------------------------------------------

         :::::::::::::::::::::::::::::::::::::::::::::::::::::
         ::                  THERMODYNAMIC                  ::
         :::::::::::::::::::::::::::::::::::::::::::::::::::::
         :: total free energy         -83.431118197785 Eh   ::
         ::.................................................::
         :: total energy              -83.871848384070 Eh   ::
         :: zero point energy           0.498537857120 Eh   ::
         :: G(RRHO) w/o ZPVE           -0.057807670835 Eh   ::
         :: G(RRHO) contrib.            0.440730186285 Eh   ::
         :::::::::::::::::::::::::::::::::::::::::::::::::::::

           -------------------------------------------------
          | TOTAL ENERGY              -83.871848384070 Eh   |
          | TOTAL ENTHALPY            -83.343255562821 Eh   |
          | TOTAL FREE ENERGY         -83.431118197785 Eh   |
          | GRADIENT NORM               0.000161800178 Eh/α |
          | HOMO-LUMO GAP               2.360348287672 eV   |
           -------------------------------------------------

------------------------------------------------------------------------
 * finished run on 2022/05/27 at 18:14:44.998     
------------------------------------------------------------------------
 total:
 * wall-time:     0 d,  0 h,  2 min, 43.325 sec
 *  cpu-time:     0 d,  0 h,  0 min, 22.465 sec
 * ratio c/w:     0.138 speedup
 SCF:
 * wall-time:     0 d,  0 h,  0 min,  0.913 sec
 *  cpu-time:     0 d,  0 h,  0 min,  0.105 sec
 * ratio c/w:     0.115 speedup
 analytical hessian:
 * wall-time:     0 d,  0 h,  2 min, 42.182 sec
 *  cpu-time:     0 d,  0 h,  0 min, 22.320 sec
 * ratio c/w:     0.138 speedup

