 Entering Gaussian System
 *********************************************
 Gaussian 98:
 frequency output generated by the xtb code
 *********************************************
                         Standard orientation:
 --------------------------------------------------------------------
  Center     Atomic     Atomic              Coordinates (Angstroms)
  Number     Number      Type              X           Y           Z
 --------------------------------------------------------------------
    1         28             0        0.001797   -1.076462   -0.636559
    2          7             0       -1.536889    0.429914   -0.552006
    3          6             0       -2.781085    0.264262   -0.272620
    4          7             0       -3.711786    1.251049   -0.287102
    5          6             0       -5.116101    0.990019   -0.064377
    6          6             0       -5.444037    0.665899    1.397363
    7          6             0       -5.176234   -0.795555    1.745022
    8          6             0       -3.718299   -1.206799    1.555619
    9          6             0       -3.235105   -1.115904    0.105314
   10          6             0       -3.337050    2.646851   -0.407699
   11          6             0       -1.849190    2.820459   -0.147654
   12          6             0       -1.110931    1.757794   -0.954521
   13          1             0       -5.661873    1.885327   -0.373593
   14          1             0       -5.448083    0.167948   -0.705362
   15          1             0       -6.498392    0.885122    1.578807
   16          1             0       -4.851335    1.315466    2.045743
   17          1             0       -5.810122   -1.431068    1.121029
   18          1             0       -5.461753   -0.968944    2.785411
   19          1             0       -3.073555   -0.590051    2.185689
   20          1             0       -3.608954   -2.240104    1.890592
   21          1             0       -2.356618   -1.760965   -0.028382
   22          1             0       -4.012811   -1.466665   -0.575711
   23          1             0       -3.919325    3.231183    0.314705
   24          1             0       -3.588298    3.008684   -1.414942
   25          1             0       -1.640069    2.669742    0.914134
   26          1             0       -1.531452    3.824770   -0.427861
   27          1             0       -0.031175    1.831494   -0.814186
   28          1             0       -1.319324    1.893045   -2.024260
   29          7             0        1.490635   -0.002554    0.513870
   30          6             0        2.762267   -0.069376    0.335756
   31          7             0        3.695447    0.447763    1.175049
   32          6             0        5.093505    0.520698    0.813247
   33          6             0        5.357960    1.423395   -0.397667
   34          6             0        5.177349    0.697648   -1.727913
   35          6             0        3.749031    0.216854   -1.965820
   36          6             0        3.250378   -0.765149   -0.902523
   37          6             0        3.302376    1.087182    2.413708
   38          6             0        1.955948    0.541260    2.862176
   39          6             0        0.988054    0.679389    1.693665
   40          1             0        5.628266    0.916695    1.679711
   41          1             0        5.487424   -0.482191    0.614166
   42          1             0        6.383038    1.795394   -0.337281
   43          1             0        4.687282    2.284300   -0.351650
   44          1             0        5.854368   -0.160280   -1.757620
   45          1             0        5.465116    1.370027   -2.539630
   46          1             0        3.067706    1.069458   -2.003334
   47          1             0        3.708753   -0.275713   -2.939074
   48          1             0        2.381959   -1.308010   -1.299956
   49          1             0        4.027210   -1.491908   -0.660125
   50          1             0        3.244142    2.177823    2.281257
   51          1             0        4.067080    0.881467    3.170839
   52          1             0        1.598194    1.082910    3.737860
   53          1             0        2.057304   -0.515095    3.118599
   54          1             0        0.840684    1.742807    1.460871
   55          1             0        0.012374    0.253547    1.941458
   56          6             0       -0.079324   -1.137345   -2.410664
   57          8             0       -0.597814   -1.136826   -3.438395
   58          6             0        0.147003   -2.465292    0.459911
   59          8             0        0.712717   -3.206971    1.136603
 --------------------------------------------------------------------
     1 basis functions        1 primitive gaussians
     1 alpha electrons        1 beta electrons

 Harmonic frequencies (cm**-1), IR intensities (km*mol⁻¹),
 Raman scattering activities (A**4/amu), Raman depolarization ratios,
 reduced masses (AMU), force constants (mDyne/A) and normal coordinates:
                      1                      2                      3
                        a                      a                      a 
 Frequencies --    10.8948                12.0133                23.2067
 Red. masses --    13.4407                13.3297                12.1632
 Frc consts  --     0.0000                 0.0000                 0.0000
 IR Inten    --     0.8589                 0.7499                 0.0727
 Raman Activ --     0.0000                 0.0000                 0.0000
 Depolar     --     0.0000                 0.0000                 0.0000
 Atom AN      X      Y      Z        X      Y      Z        X      Y      Z
   1  28     0.01  -0.16   0.19     0.00  -0.17  -0.14    -0.05   0.04  -0.03
   2   7     0.07  -0.01   0.07     0.03  -0.06  -0.06    -0.01   0.01   0.00
   3   6     0.05   0.02  -0.01     0.04  -0.00   0.01    -0.01   0.01   0.00
   4   7     0.08   0.05  -0.06     0.06   0.02   0.00    -0.02  -0.01  -0.04
   5   6     0.06   0.09  -0.15     0.06   0.06   0.11    -0.02  -0.02  -0.04
   6   6    -0.06   0.07  -0.18     0.15   0.17   0.15    -0.03   0.03  -0.03
   7   6    -0.12   0.06  -0.19     0.14   0.19   0.24    -0.01   0.05   0.02
   8   6    -0.12   0.02  -0.09     0.12   0.14   0.17     0.00   0.06   0.05
   9   6    -0.02   0.03  -0.06     0.03   0.03   0.13     0.01   0.01   0.05
  10   6     0.13   0.04   0.01     0.08  -0.00  -0.14    -0.03  -0.01  -0.09
  11   6     0.12  -0.01   0.09     0.09  -0.02  -0.20    -0.04   0.02  -0.07
  12   6     0.13  -0.02   0.11     0.05  -0.08  -0.14    -0.01   0.00  -0.03
  13   1     0.03   0.03  -0.05     0.02   0.02   0.02    -0.01  -0.01  -0.02
  14   1     0.02   0.03  -0.05     0.00   0.01   0.05    -0.00  -0.01  -0.00
  15   1    -0.02   0.03  -0.07     0.05   0.06   0.06    -0.01   0.01  -0.01
  16   1    -0.02   0.01  -0.04     0.06   0.06   0.02    -0.01   0.02  -0.01
  17   1    -0.03   0.03  -0.07     0.02   0.05   0.09     0.00   0.00   0.01
  18   1    -0.06   0.01  -0.06     0.06   0.08   0.08    -0.00   0.02   0.01
  19   1    -0.04  -0.00  -0.01     0.05   0.05   0.02    -0.00   0.03   0.01
  20   1    -0.05   0.00  -0.03     0.03   0.05   0.07     0.00   0.02   0.03
  21   1    -0.01   0.00  -0.00     0.00   0.00   0.03     0.01   0.01   0.02
  22   1     0.01   0.02  -0.03    -0.01   0.00   0.06     0.01  -0.01   0.02
  23   1     0.03   0.01  -0.00     0.03   0.02  -0.05    -0.01   0.00  -0.03
  24   1     0.06   0.02   0.00     0.02  -0.03  -0.05    -0.01  -0.01  -0.03
  25   1     0.02  -0.01   0.03     0.03   0.02  -0.06    -0.02   0.02  -0.02
  26   1     0.05  -0.00   0.04     0.03  -0.01  -0.08    -0.01   0.00  -0.03
  27   1     0.04  -0.02   0.05     0.02  -0.03  -0.05    -0.01   0.00  -0.00
  28   1     0.05   0.00   0.03     0.01  -0.04  -0.04     0.00  -0.01  -0.01
  29   7     0.03  -0.11   0.09    -0.07  -0.08   0.01    -0.00   0.08  -0.09
  30   6     0.02  -0.01   0.00    -0.05  -0.00   0.02    -0.00   0.03  -0.07
  31   7     0.04   0.02  -0.04    -0.10   0.03   0.05     0.01  -0.11  -0.00
  32   6     0.01   0.15  -0.14    -0.09   0.11   0.07     0.02  -0.16   0.05
  33   6    -0.16   0.21  -0.13    -0.13   0.16   0.10     0.12  -0.03   0.17
  34   6    -0.19   0.24  -0.14    -0.07   0.18   0.08     0.09   0.15   0.07
  35   6    -0.17   0.13  -0.06    -0.04   0.11   0.04     0.06   0.28  -0.01
  36   6    -0.01   0.06  -0.05     0.00   0.05   0.01    -0.02   0.17  -0.15
  37   6     0.08  -0.05   0.01    -0.15  -0.01   0.05     0.03  -0.26   0.09
  38   6     0.14  -0.16   0.07    -0.13  -0.09   0.02    -0.02  -0.21  -0.02
  39   6     0.06  -0.17   0.14    -0.12  -0.13   0.01     0.02  -0.00  -0.03
  40   1     0.01   0.05  -0.05    -0.04   0.04   0.03     0.01  -0.09   0.03
  41   1     0.02   0.06  -0.06    -0.01   0.04   0.01    -0.01  -0.05  -0.02
  42   1    -0.05   0.09  -0.06    -0.04   0.06   0.03     0.04  -0.03   0.07
  43   1    -0.07   0.04  -0.02    -0.05   0.03   0.03     0.05   0.00   0.08
  44   1    -0.03   0.09  -0.06    -0.01   0.06   0.02     0.01   0.03  -0.01
  45   1    -0.09   0.08  -0.04    -0.03   0.06   0.03     0.04   0.07   0.05
  46   1    -0.07   0.02   0.00    -0.03   0.02   0.02     0.04   0.10   0.03
  47   1    -0.05   0.04  -0.02     0.00   0.04   0.01     0.01   0.12  -0.02
  48   1     0.00   0.00  -0.00     0.01   0.00  -0.00    -0.01   0.08  -0.07
  49   1     0.02   0.03  -0.04     0.01   0.03   0.00    -0.02   0.02  -0.07
  50   1     0.00  -0.02   0.02    -0.06  -0.00   0.02     0.04  -0.07   0.07
  51   1     0.04  -0.01  -0.01    -0.04   0.01   0.02    -0.00  -0.12   0.02
  52   1     0.05  -0.06   0.03    -0.05  -0.04   0.01    -0.00  -0.08   0.01
  53   1     0.06  -0.05   0.01    -0.02  -0.03   0.00    -0.03  -0.07  -0.04
  54   1    -0.01  -0.05   0.05    -0.05  -0.04   0.01     0.04   0.01   0.02
  55   1     0.03  -0.07   0.05    -0.03  -0.06  -0.00    -0.01   0.02  -0.03
  56   6    -0.01  -0.10   0.09     0.05  -0.05  -0.07    -0.15  -0.15   0.00
  57   8    -0.05  -0.12   0.12     0.09  -0.07  -0.10    -0.30  -0.35   0.06
  58   6    -0.04  -0.07   0.09    -0.02  -0.13  -0.13     0.11   0.09   0.07
  59   8    -0.08  -0.11   0.11    -0.03  -0.21  -0.20     0.27   0.23   0.09
                      4                      5                      6
                        a                      a                      a 
 Frequencies --    25.5036                36.9488                44.3279
 Red. masses --    13.1010                13.2542                14.0493
 Frc consts  --     0.0000                 0.0000                 0.0000
 IR Inten    --     0.2275                 0.3793                 0.1517
 Raman Activ --     0.0000                 0.0000                 0.0000
 Depolar     --     0.0000                 0.0000                 0.0000
 Atom AN      X      Y      Z        X      Y      Z        X      Y      Z
   1  28     0.07   0.03   0.12     0.01   0.00  -0.00    -0.03   0.10  -0.06
   2   7     0.01  -0.01   0.13    -0.03  -0.03  -0.00    -0.07  -0.02   0.10
   3   6    -0.00  -0.03   0.08    -0.02  -0.04  -0.01    -0.06  -0.01   0.11
   4   7    -0.04  -0.08  -0.08    -0.06  -0.08  -0.08    -0.06  -0.00   0.10
   5   6    -0.05  -0.11  -0.18    -0.04  -0.09  -0.02    -0.08  -0.00  -0.03
   6   6    -0.18   0.04  -0.18     0.01   0.00   0.01    -0.22   0.05  -0.05
   7   6    -0.12   0.10   0.02     0.05   0.03   0.10    -0.20   0.07   0.03
   8   6    -0.08   0.17   0.19     0.05   0.04   0.08    -0.17   0.11   0.16
   9   6     0.04  -0.00   0.22     0.00  -0.03   0.06    -0.07   0.01   0.18
  10   6    -0.09  -0.07  -0.19    -0.09  -0.07  -0.20    -0.06   0.00   0.14
  11   6    -0.12   0.02  -0.10    -0.10  -0.01  -0.15    -0.05  -0.02   0.10
  12   6    -0.03  -0.02   0.03    -0.03  -0.04  -0.04    -0.08  -0.02   0.06
  13   1    -0.02  -0.05  -0.10    -0.02  -0.04  -0.02    -0.01  -0.00  -0.03
  14   1     0.02  -0.06  -0.04    -0.01  -0.04   0.01    -0.00  -0.01  -0.01
  15   1    -0.06  -0.00  -0.09     0.00  -0.00   0.01    -0.07   0.00  -0.05
  16   1    -0.08   0.04  -0.06     0.01   0.02  -0.02    -0.09   0.03  -0.00
  17   1    -0.01  -0.01   0.01     0.01  -0.01   0.05    -0.04   0.01   0.00
  18   1    -0.06   0.06   0.00     0.03   0.03   0.04    -0.08   0.03   0.00
  19   1    -0.05   0.09   0.05     0.02   0.03   0.01    -0.07   0.05   0.04
  20   1    -0.01   0.06   0.10     0.02   0.02   0.04    -0.04   0.04   0.07
  21   1     0.02   0.01   0.11     0.00  -0.01   0.02    -0.02   0.00   0.08
  22   1     0.03  -0.04   0.06    -0.00  -0.02   0.03    -0.01  -0.01   0.04
  23   1    -0.05  -0.01  -0.08    -0.04  -0.00  -0.08    -0.01  -0.01   0.05
  24   1    -0.01  -0.05  -0.07    -0.01  -0.05  -0.07    -0.02   0.01   0.05
  25   1    -0.05   0.03  -0.02    -0.04   0.02  -0.04    -0.00  -0.01   0.03
  26   1    -0.04   0.00  -0.05    -0.04  -0.00  -0.06    -0.01  -0.01   0.03
  27   1    -0.01   0.01   0.03    -0.01  -0.00   0.01    -0.02  -0.00   0.00
  28   1     0.01  -0.03   0.00     0.01  -0.03  -0.02    -0.04  -0.00   0.02
  29   7     0.04  -0.01   0.05     0.03  -0.04  -0.01     0.05   0.02  -0.06
  30   6     0.04  -0.01   0.02     0.03  -0.06  -0.02     0.05   0.00  -0.04
  31   7     0.06  -0.01   0.00     0.04  -0.12  -0.00     0.04  -0.01  -0.03
  32   6     0.05  -0.04  -0.01     0.02  -0.03  -0.05     0.04   0.01  -0.02
  33   6     0.06  -0.04  -0.01    -0.07   0.03  -0.03     0.04   0.02  -0.01
  34   6     0.03  -0.04  -0.01    -0.07   0.07  -0.05     0.05   0.04  -0.02
  35   6     0.01  -0.01   0.01    -0.05   0.01  -0.04     0.06   0.02  -0.03
  36   6     0.01  -0.01   0.01     0.02  -0.03  -0.04     0.07   0.01  -0.04
  37   6     0.07   0.04  -0.02     0.08  -0.23   0.07     0.05  -0.07   0.00
  38   6     0.09   0.02   0.03     0.04  -0.19   0.01     0.02  -0.04  -0.04
  39   6     0.05  -0.02   0.06     0.06  -0.05   0.01     0.05   0.02  -0.06
  40   1     0.02  -0.02  -0.00     0.01  -0.01  -0.02     0.01   0.00  -0.00
  41   1     0.01  -0.01  -0.01     0.02  -0.00  -0.03     0.02   0.00  -0.01
  42   1     0.02  -0.02  -0.01    -0.03   0.03  -0.01     0.01   0.01  -0.00
  43   1     0.03  -0.01  -0.00    -0.04  -0.00   0.01     0.01   0.00  -0.00
  44   1     0.00  -0.02  -0.01    -0.01   0.03  -0.03     0.02   0.01  -0.01
  45   1     0.01  -0.01  -0.00    -0.04   0.04  -0.01     0.01   0.01  -0.00
  46   1     0.01   0.00   0.01    -0.03  -0.01  -0.00     0.02   0.00  -0.01
  47   1    -0.00   0.00   0.00    -0.01   0.01  -0.01     0.02   0.01  -0.01
  48   1    -0.00   0.00   0.00     0.01  -0.02  -0.01     0.02  -0.00  -0.01
  49   1     0.00  -0.01  -0.00     0.01  -0.00  -0.02     0.02   0.01  -0.01
  50   1     0.01   0.01  -0.02     0.04  -0.06   0.06     0.03  -0.02   0.02
  51   1     0.02   0.03  -0.01     0.02  -0.11   0.01     0.01  -0.04   0.00
  52   1     0.03   0.01   0.01     0.02  -0.07   0.01     0.01  -0.02  -0.01
  53   1     0.03   0.01   0.02    -0.01  -0.06  -0.02    -0.00  -0.02  -0.02
  54   1    -0.00  -0.01   0.02     0.05  -0.01   0.02     0.03   0.01  -0.01
  55   1     0.02  -0.02   0.03     0.01   0.01  -0.01     0.01   0.02  -0.02
  56   6    -0.06   0.15   0.06     0.09   0.15  -0.01     0.19  -0.06  -0.03
  57   8    -0.19   0.30   0.12     0.25   0.46  -0.08     0.58  -0.35  -0.22
  58   6     0.10  -0.11  -0.11    -0.06   0.09   0.12    -0.03   0.03  -0.05
  59   8     0.19  -0.27  -0.34    -0.17   0.26   0.40    -0.07  -0.04  -0.11
                      7                      8                      9
                        a                      a                      a 
 Frequencies --    49.9143                53.0950                61.9934
 Red. masses --    13.1794                15.9537                10.9261
 Frc consts  --     0.0000                 0.0000                 0.0000
 IR Inten    --     0.2115                 0.1192                 0.1688
 Raman Activ --     0.0000                 0.0000                 0.0000
 Depolar     --     0.0000                 0.0000                 0.0000
 Atom AN      X      Y      Z        X      Y      Z        X      Y      Z
   1  28     0.03  -0.02   0.08    -0.02   0.28   0.13    -0.14  -0.02  -0.04
   2   7    -0.03  -0.04  -0.01    -0.02   0.15  -0.01    -0.01   0.03   0.02
   3   6    -0.03  -0.04  -0.02    -0.03   0.07  -0.08    -0.02   0.02  -0.02
   4   7    -0.03  -0.04  -0.03    -0.09   0.02  -0.11    -0.03   0.01  -0.04
   5   6    -0.02  -0.02   0.03    -0.05  -0.06   0.04    -0.02   0.01   0.01
   6   6     0.03  -0.01   0.04     0.12  -0.07   0.08     0.04   0.01   0.03
   7   6     0.01  -0.01   0.04     0.17  -0.07   0.04     0.03   0.01   0.02
   8   6    -0.00  -0.04  -0.01     0.16  -0.05  -0.09     0.02  -0.01  -0.03
   9   6    -0.05  -0.03  -0.03     0.03   0.04  -0.13    -0.01   0.01  -0.04
  10   6    -0.03  -0.04  -0.05    -0.16   0.02  -0.23    -0.03   0.01  -0.10
  11   6    -0.03  -0.03  -0.04    -0.20   0.14  -0.09    -0.05   0.03  -0.00
  12   6    -0.02  -0.04  -0.02    -0.03   0.16   0.04     0.02   0.03   0.06
  13   1    -0.01  -0.01   0.01    -0.04  -0.02   0.03    -0.01   0.00   0.01
  14   1    -0.02  -0.01   0.01    -0.02  -0.02   0.02    -0.01   0.00   0.01
  15   1     0.01   0.00   0.03     0.04  -0.02   0.06     0.01   0.01   0.02
  16   1     0.02  -0.01   0.00     0.05  -0.02   0.00     0.02   0.00  -0.00
  17   1    -0.01  -0.00   0.02     0.03  -0.02   0.03     0.00   0.00   0.01
  18   1     0.01  -0.00   0.01     0.08  -0.02   0.02     0.02   0.00   0.01
  19   1     0.01  -0.02  -0.01     0.06  -0.02  -0.03     0.01  -0.01  -0.01
  20   1    -0.01  -0.02  -0.01     0.05  -0.02  -0.05     0.01  -0.01  -0.01
  21   1    -0.02  -0.02  -0.02     0.01   0.02  -0.06    -0.00   0.01  -0.02
  22   1    -0.02  -0.00  -0.00    -0.00   0.02  -0.02    -0.01   0.01  -0.01
  23   1    -0.01  -0.01  -0.02    -0.08   0.02  -0.11    -0.02   0.01  -0.05
  24   1    -0.00  -0.02  -0.02    -0.02  -0.03  -0.09     0.01  -0.02  -0.04
  25   1    -0.01  -0.01  -0.01    -0.09   0.06  -0.02    -0.04   0.01   0.00
  26   1    -0.01  -0.01  -0.02    -0.07   0.04  -0.03    -0.01   0.01   0.00
  27   1    -0.01  -0.01  -0.00    -0.02   0.06   0.06     0.00   0.01   0.05
  28   1    -0.00  -0.02  -0.01     0.04   0.04   0.00     0.03   0.01   0.01
  29   7     0.05   0.03  -0.03     0.04   0.03   0.10    -0.05  -0.14   0.16
  30   6     0.05   0.07  -0.06     0.03  -0.03   0.07    -0.06  -0.04   0.04
  31   7     0.06   0.06  -0.06     0.07  -0.08   0.06    -0.01  -0.03  -0.03
  32   6     0.08  -0.09   0.01     0.04  -0.01  -0.03    -0.01  -0.19  -0.03
  33   6     0.26  -0.04   0.09    -0.09   0.00  -0.05     0.13  -0.15   0.03
  34   6     0.18   0.08   0.03    -0.11  -0.01  -0.04    -0.05  -0.02  -0.02
  35   6     0.12   0.26  -0.00    -0.10  -0.08   0.02    -0.12   0.16   0.05
  36   6     0.04   0.17  -0.12    -0.02  -0.06   0.07    -0.13   0.06  -0.04
  37   6     0.05   0.12  -0.09     0.13  -0.12   0.10    -0.02   0.27  -0.18
  38   6     0.09   0.06  -0.03     0.10  -0.05   0.09     0.15   0.07   0.10
  39   6     0.04  -0.03   0.00     0.10   0.05   0.10    -0.06  -0.29   0.23
  40   1     0.03  -0.06   0.02     0.02   0.01  -0.02     0.02  -0.10  -0.00
  41   1    -0.01  -0.04  -0.01     0.02   0.00  -0.02    -0.05  -0.07  -0.03
  42   1     0.09  -0.06   0.04    -0.03   0.02  -0.03     0.06  -0.10   0.01
  43   1     0.11   0.02   0.04    -0.04  -0.01  -0.01     0.09  -0.01   0.03
  44   1     0.02   0.00  -0.01    -0.02   0.01  -0.02    -0.04  -0.03  -0.04
  45   1     0.07   0.03   0.02    -0.05   0.00  -0.02    -0.01   0.00   0.01
  46   1     0.06   0.10   0.03    -0.04  -0.03   0.00    -0.01   0.07   0.07
  47   1     0.02   0.11  -0.02    -0.03  -0.03   0.01    -0.08   0.09  -0.00
  48   1     0.00   0.08  -0.05    -0.01  -0.03   0.04    -0.05   0.04  -0.02
  49   1    -0.00   0.03  -0.05     0.00  -0.01   0.02    -0.04   0.00  -0.04
  50   1    -0.01   0.03  -0.05     0.06  -0.03   0.05    -0.09   0.06  -0.15
  51   1     0.02   0.07  -0.03     0.04  -0.07   0.02     0.03   0.20  -0.06
  52   1     0.03   0.02  -0.01     0.04  -0.02   0.03     0.05   0.04   0.02
  53   1     0.05   0.02   0.00     0.01  -0.02   0.02     0.12   0.04   0.07
  54   1    -0.02  -0.01   0.00     0.05   0.02   0.03    -0.14  -0.10   0.07
  55   1     0.03  -0.03   0.01     0.02   0.04   0.03     0.03  -0.18   0.12
  56   6    -0.01   0.00   0.04     0.04  -0.03   0.06     0.05   0.00  -0.03
  57   8    -0.07  -0.00   0.07     0.08  -0.34   0.06     0.25  -0.03  -0.13
  58   6    -0.21  -0.04   0.02    -0.08   0.03  -0.04     0.03   0.01   0.00
  59   8    -0.62  -0.28   0.08    -0.11  -0.17  -0.26     0.24   0.19   0.02
                     10                     11                     12
                        a                      a                      a 
 Frequencies --    71.2268                80.6506                86.7133
 Red. masses --    20.3773                10.3587                12.7557
 Frc consts  --     0.0000                 0.0000                 0.0000
 IR Inten    --     1.5568                 0.5773                 0.3618
 Raman Activ --     0.0000                 0.0000                 0.0000
 Depolar     --     0.0000                 0.0000                 0.0000
 Atom AN      X      Y      Z        X      Y      Z        X      Y      Z
   1  28    -0.15  -0.15   0.37     0.10  -0.00  -0.02     0.09   0.15  -0.12
   2   7    -0.09  -0.07  -0.06     0.07  -0.00  -0.05    -0.12  -0.11  -0.06
   3   6    -0.09  -0.01  -0.05     0.08  -0.02   0.01    -0.11  -0.03   0.04
   4   7    -0.04   0.05  -0.03     0.08  -0.03   0.04    -0.05   0.03   0.13
   5   6    -0.04   0.13   0.10     0.07  -0.05  -0.06    -0.06   0.13   0.16
   6   6     0.08   0.07   0.11    -0.03  -0.06  -0.08    -0.04   0.04   0.14
   7   6    -0.06   0.02  -0.02     0.04  -0.04  -0.04    -0.21  -0.02  -0.02
   8   6    -0.12  -0.13  -0.13     0.07   0.05   0.05    -0.24  -0.14  -0.04
   9   6    -0.15  -0.01  -0.13     0.11  -0.01   0.06    -0.18  -0.02  -0.02
  10   6     0.03   0.02  -0.07     0.06  -0.01   0.13     0.02  -0.01  -0.09
  11   6     0.04  -0.04  -0.10     0.08  -0.02  -0.01     0.04  -0.04  -0.21
  12   6    -0.02  -0.09  -0.08     0.00  -0.00  -0.11    -0.06  -0.15  -0.15
  13   1    -0.00   0.05   0.06     0.02  -0.02  -0.03     0.00   0.06   0.07
  14   1    -0.04   0.05   0.03     0.04  -0.02  -0.02    -0.05   0.06   0.03
  15   1     0.04   0.06   0.07    -0.02  -0.04  -0.05    -0.00   0.05   0.06
  16   1     0.07  -0.01   0.03    -0.04  -0.00  -0.01     0.02  -0.03   0.05
  17   1    -0.05   0.04  -0.01     0.03  -0.03  -0.02    -0.08   0.03  -0.03
  18   1    -0.01  -0.01  -0.01    -0.00  -0.01  -0.01    -0.07  -0.03  -0.01
  19   1    -0.01  -0.08  -0.02     0.00   0.04   0.01    -0.06  -0.08   0.01
  20   1    -0.06  -0.05  -0.08     0.04   0.02   0.04    -0.10  -0.06  -0.05
  21   1    -0.05  -0.01  -0.06     0.04   0.00   0.03    -0.06  -0.02  -0.01
  22   1    -0.05   0.02  -0.04     0.04  -0.02   0.02    -0.05   0.02  -0.02
  23   1     0.02   0.02  -0.02     0.04  -0.02   0.07     0.03   0.03  -0.04
  24   1     0.01   0.00  -0.02    -0.02   0.02   0.05    -0.01  -0.04  -0.04
  25   1     0.02  -0.00  -0.03     0.06  -0.01  -0.01     0.03   0.02  -0.06
  26   1     0.02  -0.02  -0.04     0.02  -0.00  -0.00     0.02  -0.02  -0.10
  27   1    -0.00  -0.04  -0.03     0.01   0.00  -0.07    -0.01  -0.06  -0.05
  28   1    -0.01  -0.03  -0.02    -0.04  -0.00  -0.02    -0.02  -0.06  -0.04
  29   7    -0.03   0.12  -0.06    -0.04   0.11   0.01     0.15  -0.10   0.05
  30   6    -0.03   0.05  -0.06    -0.05  -0.09   0.05     0.14  -0.13   0.08
  31   7    -0.02   0.01  -0.05     0.02  -0.30   0.10     0.16  -0.18   0.11
  32   6    -0.00  -0.06  -0.03    -0.01  -0.28  -0.02     0.12  -0.01   0.03
  33   6     0.06  -0.04   0.00    -0.11  -0.08   0.11    -0.06   0.11   0.07
  34   6     0.01   0.03  -0.03    -0.27   0.16  -0.01    -0.03   0.15   0.04
  35   6    -0.01   0.11  -0.03    -0.28   0.14   0.07     0.03  -0.05   0.07
  36   6    -0.04   0.08  -0.07    -0.13  -0.02  -0.02     0.15  -0.11   0.07
  37   6     0.04  -0.09   0.02     0.07   0.00  -0.04     0.11   0.07  -0.03
  38   6    -0.03   0.03  -0.05    -0.04   0.30  -0.01     0.11   0.11   0.03
  39   6     0.02   0.18  -0.08     0.01   0.27  -0.06     0.11  -0.06   0.01
  40   1     0.00  -0.03  -0.00     0.03  -0.13   0.00     0.04  -0.01   0.01
  41   1    -0.02  -0.02  -0.02    -0.02  -0.08  -0.07     0.05   0.01  -0.02
  42   1     0.02  -0.03   0.00    -0.03  -0.03   0.02    -0.03   0.07   0.01
  43   1     0.03   0.00   0.01    -0.02  -0.02   0.10    -0.05   0.00   0.05
  44   1    -0.01  -0.00  -0.02    -0.07   0.06  -0.07     0.03   0.07  -0.01
  45   1     0.01   0.01  -0.00    -0.11   0.09   0.02    -0.05   0.07   0.02
  46   1     0.01   0.04   0.01    -0.09   0.04   0.08    -0.03  -0.04   0.02
  47   1    -0.01   0.05  -0.02    -0.10   0.08  -0.00     0.02  -0.01   0.02
  48   1    -0.01   0.03  -0.03    -0.04  -0.00   0.00     0.05  -0.05   0.03
  49   1    -0.02   0.02  -0.03    -0.02  -0.00  -0.05     0.06  -0.02   0.01
  50   1     0.05  -0.02   0.04     0.08  -0.00  -0.07     0.02   0.01  -0.07
  51   1     0.00  -0.08   0.00     0.00   0.00   0.01     0.03   0.07   0.01
  52   1    -0.00   0.01  -0.01     0.01   0.14  -0.03     0.03   0.06  -0.01
  53   1    -0.05   0.00  -0.03    -0.06   0.09   0.05     0.04   0.04   0.05
  54   1     0.06   0.06  -0.02     0.04   0.07  -0.05     0.00  -0.03  -0.02
  55   1    -0.01   0.10  -0.03    -0.01   0.11  -0.01     0.04  -0.04   0.02
  56   6     0.05  -0.05   0.17     0.05  -0.00  -0.01     0.00   0.06  -0.05
  57   8     0.31   0.22   0.07     0.04   0.00  -0.01    -0.18  -0.05   0.03
  58   6     0.06  -0.07   0.14     0.01  -0.01  -0.01     0.03   0.05  -0.08
  59   8     0.32  -0.19  -0.16    -0.09  -0.07   0.00     0.03   0.12  -0.02
                     13                     14                     15
                        a                      a                      a 
 Frequencies --    88.8079                97.6942               108.8141
 Red. masses --    10.2778                14.8205                10.5703
 Frc consts  --     0.0000                 0.0000                 0.0000
 IR Inten    --     0.9415                 0.9299                 0.1172
 Raman Activ --     0.0000                 0.0000                 0.0000
 Depolar     --     0.0000                 0.0000                 0.0000
 Atom AN      X      Y      Z        X      Y      Z        X      Y      Z
   1  28    -0.03  -0.05   0.02     0.20   0.14  -0.18     0.03  -0.08  -0.14
   2   7     0.10   0.13   0.09    -0.01  -0.16  -0.01     0.07  -0.03   0.33
   3   6     0.12   0.12   0.20    -0.01  -0.10   0.02     0.02  -0.02   0.10
   4   7     0.12   0.11   0.36     0.04  -0.06   0.02     0.02  -0.02  -0.06
   5   6     0.08   0.04   0.13     0.03   0.02   0.03     0.02   0.02   0.01
   6   6    -0.13  -0.22   0.02     0.02   0.05   0.03     0.11   0.08   0.05
   7   6    -0.11  -0.26  -0.16    -0.08   0.02   0.01    -0.04   0.05   0.03
   8   6    -0.04  -0.10   0.05    -0.11  -0.07   0.02    -0.10  -0.12  -0.01
   9   6     0.16   0.09   0.13    -0.07  -0.08   0.03    -0.05  -0.03   0.01
  10   6     0.04   0.07  -0.20     0.10  -0.08  -0.05     0.04  -0.05  -0.31
  11   6     0.04   0.22  -0.30     0.11  -0.13  -0.05    -0.05  -0.00   0.18
  12   6     0.10   0.07  -0.06     0.06  -0.17  -0.03     0.20  -0.03   0.45
  13   1     0.03   0.03   0.07     0.02   0.01   0.01     0.01   0.00   0.00
  14   1     0.05   0.04  -0.02    -0.01   0.01   0.01    -0.01  -0.00   0.02
  15   1    -0.05  -0.09  -0.04     0.01   0.04   0.01     0.05   0.06   0.04
  16   1    -0.08  -0.09   0.07     0.02  -0.00   0.01     0.07   0.00  -0.00
  17   1     0.02  -0.06  -0.11    -0.04   0.02  -0.00    -0.04   0.04   0.01
  18   1    -0.09  -0.13  -0.07    -0.03   0.01   0.00    -0.01   0.02   0.01
  19   1    -0.06  -0.03   0.06    -0.02  -0.04   0.01    -0.01  -0.08   0.02
  20   1     0.00  -0.04  -0.01    -0.05  -0.02  -0.00    -0.07  -0.05  -0.04
  21   1     0.06   0.04   0.05    -0.03  -0.03   0.01    -0.02  -0.02   0.00
  22   1     0.08   0.03  -0.00    -0.02  -0.01   0.00    -0.01   0.01  -0.01
  23   1     0.01   0.09  -0.11     0.04  -0.00  -0.03    -0.06   0.04  -0.19
  24   1     0.00  -0.09  -0.09     0.04  -0.03  -0.02     0.12  -0.09  -0.14
  25   1     0.02   0.14  -0.08     0.03  -0.03  -0.01    -0.12   0.01   0.07
  26   1    -0.01   0.05  -0.16     0.04  -0.04  -0.02     0.01  -0.00   0.07
  27   1     0.02   0.03   0.00     0.02  -0.07  -0.00     0.05  -0.01   0.23
  28   1     0.05  -0.03  -0.03     0.02  -0.05  -0.01     0.16  -0.01   0.11
  29   7    -0.05   0.01  -0.03    -0.10   0.21   0.16    -0.01   0.06  -0.09
  30   6    -0.05   0.03  -0.03    -0.11   0.18   0.07    -0.01  -0.02  -0.03
  31   7    -0.06   0.05  -0.04    -0.05   0.22  -0.01    -0.02  -0.07   0.01
  32   6    -0.04   0.00  -0.01    -0.04   0.02  -0.03    -0.02  -0.04   0.01
  33   6     0.02  -0.03  -0.02     0.07  -0.14  -0.12    -0.05   0.02   0.05
  34   6     0.01  -0.05  -0.01    -0.07  -0.20  -0.07    -0.02   0.05   0.02
  35   6    -0.00   0.01  -0.03    -0.16   0.04   0.00    -0.00  -0.00  -0.00
  36   6    -0.04   0.03  -0.03    -0.21   0.14   0.06     0.01  -0.03  -0.02
  37   6    -0.06  -0.02  -0.00     0.08  -0.08   0.18    -0.04   0.03  -0.05
  38   6    -0.05  -0.05  -0.02     0.07  -0.08   0.15    -0.10   0.15  -0.08
  39   6    -0.05  -0.02  -0.01     0.02   0.15   0.22    -0.02   0.15  -0.14
  40   1    -0.02   0.00  -0.00    -0.00   0.02  -0.02    -0.01  -0.02   0.01
  41   1    -0.02  -0.00   0.01    -0.04  -0.01   0.02    -0.00  -0.01  -0.01
  42   1     0.01  -0.02  -0.00     0.04  -0.09  -0.05    -0.02   0.02   0.02
  43   1     0.02  -0.00  -0.01     0.06  -0.01  -0.05    -0.02  -0.00   0.02
  44   1    -0.01  -0.02   0.00    -0.06  -0.09  -0.01     0.00   0.02  -0.00
  45   1     0.02  -0.02  -0.01     0.01  -0.09  -0.03    -0.01   0.03   0.01
  46   1     0.01   0.01  -0.01    -0.01   0.04   0.01    -0.01  -0.01  -0.00
  47   1    -0.00   0.00  -0.01    -0.09   0.01   0.00     0.01  -0.00  -0.00
  48   1    -0.01   0.01  -0.01    -0.08   0.05   0.03     0.00  -0.01  -0.01
  49   1    -0.02   0.00  -0.01    -0.07   0.02   0.02     0.00  -0.01  -0.01
  50   1    -0.02  -0.00   0.01     0.05  -0.01   0.13     0.01   0.01  -0.03
  51   1    -0.01  -0.01  -0.01     0.03  -0.09   0.02    -0.02   0.01   0.00
  52   1    -0.01  -0.03   0.00     0.04  -0.06   0.07    -0.03   0.07  -0.04
  53   1    -0.01  -0.02  -0.02     0.01  -0.04  -0.00    -0.05   0.05  -0.00
  54   1    -0.01  -0.00   0.00     0.03   0.05   0.10     0.02   0.04  -0.05
  55   1    -0.02  -0.01  -0.01    -0.00   0.06   0.07    -0.02   0.07  -0.05
  56   6    -0.01  -0.02   0.01     0.08   0.10  -0.10    -0.04   0.03  -0.06
  57   8     0.07   0.01  -0.03    -0.05  -0.07  -0.04    -0.01  -0.03  -0.09
  58   6    -0.03  -0.02   0.03     0.06   0.03  -0.14     0.04  -0.02  -0.06
  59   8    -0.06  -0.04   0.04    -0.08   0.05  -0.01    -0.03   0.02   0.04
                     16                     17                     18
                        a                      a                      a 
 Frequencies --   158.5143               168.7133               169.9949
 Red. masses --    22.6198                18.3259                25.0116
 Frc consts  --     0.0000                 0.0000                 0.0000
 IR Inten    --     0.6620                 0.1486                 1.5216
 Raman Activ --     0.0000                 0.0000                 0.0000
 Depolar     --     0.0000                 0.0000                 0.0000
 Atom AN      X      Y      Z        X      Y      Z        X      Y      Z
   1  28    -0.40  -0.28  -0.18     0.43   0.01   0.05    -0.46   0.30   0.11
   2   7    -0.05  -0.03  -0.14    -0.12  -0.06  -0.22     0.04  -0.12  -0.01
   3   6    -0.04   0.01  -0.09    -0.10   0.01  -0.14     0.04  -0.09  -0.01
   4   7    -0.02   0.04   0.16    -0.07   0.07   0.24     0.10  -0.06   0.03
   5   6    -0.04   0.04   0.04    -0.10   0.10   0.11     0.08  -0.03  -0.04
   6   6    -0.17  -0.10  -0.02    -0.26  -0.08   0.04     0.00  -0.08  -0.07
   7   6     0.07  -0.05   0.02     0.04  -0.02   0.04     0.06  -0.05   0.00
   8   6     0.13   0.17   0.00     0.10   0.24  -0.04     0.08   0.01   0.05
   9   6    -0.05   0.02  -0.07    -0.14   0.04  -0.14     0.02  -0.08   0.03
  10   6     0.04  -0.00  -0.09     0.02   0.00  -0.13     0.18  -0.09  -0.06
  11   6     0.03  -0.05   0.06    -0.01  -0.08   0.12     0.18  -0.15   0.00
  12   6     0.08  -0.02   0.06     0.06  -0.01   0.09     0.14  -0.15  -0.01
  13   1    -0.00   0.02   0.03    -0.01   0.05   0.06     0.03  -0.00  -0.01
  14   1    -0.01   0.03  -0.02    -0.04   0.06  -0.01     0.03  -0.00  -0.03
  15   1    -0.07  -0.09  -0.05    -0.10  -0.10  -0.05    -0.01  -0.04  -0.05
  16   1    -0.12   0.01   0.02    -0.16   0.01   0.05    -0.03  -0.01  -0.01
  17   1     0.05  -0.05   0.02     0.04  -0.05   0.03     0.03  -0.03   0.00
  18   1     0.03  -0.01   0.01     0.04  -0.01   0.02     0.01  -0.00   0.00
  19   1     0.02   0.12  -0.05     0.02   0.15  -0.08     0.02   0.03  -0.00
  20   1     0.10   0.07   0.05     0.10   0.10   0.05     0.04   0.01   0.04
  21   1    -0.03  -0.01  -0.04    -0.06  -0.01  -0.07    -0.00  -0.03   0.00
  22   1    -0.04   0.01   0.01    -0.08   0.02   0.00    -0.01  -0.02   0.02
  23   1    -0.00   0.04  -0.08    -0.02   0.07  -0.12     0.05  -0.00  -0.04
  24   1     0.05  -0.05  -0.05     0.08  -0.07  -0.08     0.08  -0.04  -0.03
  25   1    -0.02  -0.03   0.02    -0.06  -0.06   0.04     0.04  -0.06   0.00
  26   1     0.02  -0.01   0.04     0.02  -0.02   0.08     0.06  -0.04   0.01
  27   1     0.02  -0.03   0.06     0.01  -0.03   0.09     0.04  -0.07   0.00
  28   1     0.07   0.03   0.01     0.09   0.05   0.02     0.05  -0.04  -0.00
  29   7     0.07  -0.09   0.12    -0.04   0.11  -0.06    -0.03   0.16  -0.02
  30   6     0.07  -0.03   0.10    -0.04   0.04  -0.05    -0.03   0.09  -0.05
  31   7     0.08   0.15  -0.00    -0.03  -0.10   0.02     0.02  -0.17   0.06
  32   6     0.09   0.10   0.02    -0.04  -0.07  -0.01    -0.01  -0.06  -0.02
  33   6     0.14   0.04  -0.01    -0.10  -0.02   0.01    -0.17   0.08   0.05
  34   6     0.01   0.03   0.01    -0.00  -0.01  -0.01     0.11   0.01   0.05
  35   6    -0.02   0.06   0.13     0.02  -0.04  -0.09     0.18  -0.11  -0.13
  36   6     0.07  -0.02   0.11    -0.05   0.03  -0.06    -0.07   0.07  -0.07
  37   6     0.18  -0.03   0.12    -0.08   0.03  -0.06     0.03   0.03  -0.05
  38   6     0.09   0.13   0.06    -0.03  -0.05  -0.02     0.07   0.01   0.04
  39   6     0.15   0.15   0.01    -0.07  -0.05   0.01     0.00  -0.01   0.10
  40   1     0.02   0.04   0.00    -0.00  -0.03  -0.00     0.01  -0.04  -0.00
  41   1     0.03   0.03   0.02    -0.01  -0.02  -0.02    -0.00  -0.01  -0.05
  42   1     0.05  -0.02  -0.02    -0.04   0.02   0.01    -0.08   0.11   0.03
  43   1     0.07   0.04  -0.00    -0.05  -0.03   0.00    -0.12  -0.03   0.00
  44   1    -0.01   0.00  -0.01     0.01   0.00   0.01     0.06   0.02   0.06
  45   1    -0.01   0.01  -0.01     0.01  -0.00   0.00     0.05  -0.00   0.02
  46   1    -0.01   0.02   0.08     0.01  -0.02  -0.06     0.05  -0.04  -0.13
  47   1    -0.04   0.04   0.03     0.03  -0.03  -0.02     0.12  -0.09  -0.01
  48   1     0.02  -0.01   0.04    -0.02   0.02  -0.02    -0.04   0.06  -0.03
  49   1     0.04   0.01   0.02    -0.03  -0.00  -0.01    -0.06  -0.02   0.00
  50   1     0.11   0.00   0.09    -0.05   0.00  -0.06    -0.01   0.00  -0.06
  51   1     0.04  -0.08   0.03    -0.02   0.05  -0.01     0.02   0.06  -0.01
  52   1     0.03   0.06   0.00    -0.01  -0.03   0.00     0.03   0.00   0.02
  53   1    -0.01   0.04   0.04     0.01  -0.02  -0.02     0.04   0.00   0.01
  54   1     0.10   0.04  -0.04    -0.05  -0.01   0.03    -0.04  -0.00   0.06
  55   1     0.02   0.11   0.01    -0.01  -0.05  -0.00     0.02  -0.04   0.04
  56   6    -0.09  -0.09  -0.09     0.12  -0.03   0.03    -0.05   0.03   0.05
  57   8    -0.05   0.06  -0.13    -0.00   0.01   0.11     0.04   0.02   0.00
  58   6    -0.09  -0.05  -0.01     0.08   0.01   0.05    -0.10   0.14   0.02
  59   8     0.04   0.03  -0.03     0.02  -0.06   0.03    -0.04   0.06  -0.14
                     19                     20                     21
                        a                      a                      a 
 Frequencies --   186.1246               219.9413               235.2613
 Red. masses --    18.8085                14.2453                 8.1921
 Frc consts  --     0.0000                 0.0000                 0.0000
 IR Inten    --     0.8338                 2.4820                 0.6406
 Raman Activ --     0.0000                 0.0000                 0.0000
 Depolar     --     0.0000                 0.0000                 0.0000
 Atom AN      X      Y      Z        X      Y      Z        X      Y      Z
   1  28     0.06  -0.39  -0.18     0.12   0.08  -0.17    -0.00  -0.01  -0.02
   2   7    -0.01   0.09   0.01     0.02   0.01  -0.07     0.03  -0.05   0.32
   3   6    -0.01   0.06   0.01     0.04  -0.02   0.01    -0.03  -0.03   0.04
   4   7    -0.05   0.04  -0.04     0.02  -0.04   0.02     0.03   0.01   0.12
   5   6    -0.04   0.01   0.01     0.02  -0.04   0.01    -0.00  -0.04  -0.10
   6   6     0.02   0.05   0.03     0.02   0.04   0.03    -0.14  -0.03  -0.13
   7   6    -0.03   0.03  -0.01    -0.06   0.02   0.00     0.14   0.08   0.18
   8   6    -0.05  -0.01  -0.03    -0.07  -0.03   0.02     0.07  -0.04  -0.14
   9   6     0.02   0.05  -0.00     0.04  -0.01   0.05    -0.20  -0.04  -0.22
  10   6    -0.12   0.06   0.07    -0.00  -0.04  -0.03    -0.02   0.02   0.18
  11   6    -0.11   0.11  -0.03    -0.02  -0.03   0.05     0.05   0.17  -0.25
  12   6    -0.09   0.10  -0.02     0.00   0.03  -0.00     0.06  -0.11   0.11
  13   1    -0.02  -0.01  -0.00     0.00  -0.02  -0.02     0.00  -0.01  -0.04
  14   1    -0.01  -0.01   0.02     0.01  -0.02   0.02     0.03  -0.01  -0.04
  15   1     0.01   0.03   0.03     0.01   0.03   0.02    -0.06  -0.08  -0.09
  16   1     0.03   0.00  -0.00     0.03  -0.00   0.00    -0.12   0.07  -0.04
  17   1    -0.02   0.02  -0.01    -0.02   0.02  -0.01    -0.01  -0.04   0.17
  18   1    -0.01  -0.00  -0.01    -0.02  -0.00  -0.00     0.14   0.11   0.09
  19   1    -0.01  -0.02   0.01    -0.02  -0.02   0.02     0.08  -0.03  -0.08
  20   1    -0.03  -0.01  -0.03    -0.04  -0.01  -0.00     0.01  -0.01  -0.04
  21   1     0.02   0.03   0.01     0.01  -0.00   0.04    -0.10  -0.05  -0.13
  22   1     0.02   0.01  -0.01     0.03  -0.01   0.00    -0.11   0.06  -0.04
  23   1    -0.02  -0.01   0.05    -0.02  -0.00  -0.02     0.05  -0.02   0.12
  24   1    -0.06   0.04   0.03     0.02  -0.02  -0.02    -0.10   0.03   0.09
  25   1    -0.01   0.05  -0.01    -0.02  -0.03   0.01     0.09   0.21  -0.06
  26   1    -0.04   0.03  -0.03    -0.01  -0.00   0.04    -0.02   0.02  -0.23
  27   1    -0.03   0.04  -0.01    -0.00   0.01   0.00     0.01  -0.02   0.05
  28   1    -0.03   0.02  -0.01     0.00   0.03   0.00     0.05  -0.11   0.02
  29   7    -0.04   0.20   0.09     0.05   0.12  -0.05     0.02   0.14  -0.07
  30   6    -0.04   0.15   0.00     0.05   0.03   0.04     0.02   0.04   0.01
  31   7     0.05  -0.14   0.10     0.05  -0.00   0.07     0.03   0.01   0.03
  32   6     0.01  -0.05  -0.04     0.05   0.02   0.05     0.03  -0.02   0.03
  33   6    -0.18   0.10   0.04     0.02  -0.04   0.00     0.02  -0.03   0.02
  34   6     0.13  -0.01   0.06    -0.08  -0.02   0.00    -0.07   0.03   0.00
  35   6     0.18  -0.10  -0.12    -0.09  -0.01   0.05    -0.05  -0.04   0.03
  36   6    -0.13   0.15  -0.05     0.02  -0.03   0.07     0.02  -0.03   0.06
  37   6     0.15   0.00   0.05    -0.03   0.07  -0.00    -0.03   0.07  -0.03
  38   6     0.15   0.10   0.14     0.04  -0.10  -0.02     0.04  -0.11  -0.05
  39   6     0.06   0.07   0.20     0.01  -0.02   0.02     0.01   0.03  -0.01
  40   1     0.03  -0.05  -0.01     0.01   0.03   0.01     0.01  -0.00   0.01
  41   1    -0.00  -0.01  -0.06     0.02   0.01   0.03     0.01  -0.01   0.01
  42   1    -0.09   0.13   0.03     0.01  -0.03  -0.02     0.01  -0.02  -0.01
  43   1    -0.14  -0.04  -0.00     0.02   0.00   0.01     0.02   0.00   0.02
  44   1     0.06   0.01   0.08    -0.03  -0.01  -0.01    -0.01   0.02  -0.02
  45   1     0.06  -0.02   0.01    -0.03  -0.00   0.00    -0.04   0.02   0.01
  46   1     0.06  -0.03  -0.14    -0.03  -0.01   0.03    -0.03  -0.02   0.01
  47   1     0.12  -0.10  -0.00    -0.04   0.01   0.01    -0.01  -0.02   0.01
  48   1    -0.07   0.10  -0.03     0.00  -0.02   0.04     0.01  -0.02   0.03
  49   1    -0.10  -0.02   0.00     0.02   0.01   0.02     0.02   0.00   0.02
  50   1     0.06  -0.00  -0.01    -0.05   0.01  -0.03    -0.06   0.02  -0.03
  51   1     0.05   0.00   0.01    -0.00   0.07   0.01    -0.00   0.07  -0.00
  52   1     0.06   0.05   0.04     0.00  -0.07   0.02     0.01  -0.09   0.02
  53   1     0.04   0.03   0.06     0.04  -0.04  -0.05     0.04  -0.04  -0.07
  54   1    -0.01   0.02   0.07    -0.02  -0.00   0.04     0.00   0.02   0.03
  55   1     0.03  -0.00   0.08     0.01  -0.03  -0.01     0.00   0.00  -0.02
  56   6    -0.10  -0.08  -0.10    -0.21  -0.53  -0.02    -0.13   0.03  -0.01
  57   8     0.01   0.03  -0.17     0.01   0.22  -0.15     0.02  -0.01  -0.10
  58   6     0.13  -0.09   0.03    -0.11   0.37   0.43     0.10   0.04   0.03
  59   8     0.01  -0.13   0.12    -0.01  -0.12  -0.20    -0.01  -0.06   0.02
                     22                     23                     24
                        a                      a                      a 
 Frequencies --   237.7465               244.0390               257.8355
 Red. masses --    10.8972                 9.8144                12.6369
 Frc consts  --     0.0000                 0.0000                 0.0000
 IR Inten    --     0.1741                 3.6637                 4.4763
 Raman Activ --     0.0000                 0.0000                 0.0000
 Depolar     --     0.0000                 0.0000                 0.0000
 Atom AN      X      Y      Z        X      Y      Z        X      Y      Z
   1  28     0.17   0.06  -0.02    -0.04   0.06   0.05     0.21   0.10   0.00
   2   7     0.05  -0.01   0.08    -0.05  -0.02   0.06    -0.08  -0.06   0.25
   3   6     0.04  -0.03   0.02    -0.06   0.02  -0.00    -0.12   0.03   0.04
   4   7     0.05  -0.03   0.12    -0.05   0.04  -0.12    -0.11   0.07  -0.31
   5   6     0.03  -0.08  -0.04    -0.04   0.08   0.01    -0.09   0.17  -0.00
   6   6    -0.07   0.03  -0.04     0.02  -0.06  -0.00     0.07  -0.14  -0.02
   7   6     0.02   0.08   0.12     0.04  -0.07  -0.06     0.07  -0.17  -0.11
   8   6    -0.03  -0.05  -0.07     0.07   0.04   0.04     0.14   0.07   0.13
   9   6    -0.07  -0.03  -0.09    -0.01   0.01   0.02    -0.09   0.04   0.07
  10   6    -0.02  -0.03   0.06     0.04   0.03  -0.02     0.05   0.08   0.01
  11   6    -0.01   0.07  -0.07     0.04  -0.04   0.00     0.08  -0.03  -0.05
  12   6     0.03  -0.01   0.05    -0.01  -0.06  -0.01    -0.01  -0.15   0.04
  13   1     0.01  -0.03  -0.04    -0.01   0.04   0.04    -0.01   0.09   0.10
  14   1     0.04  -0.04  -0.00    -0.04   0.05  -0.02    -0.09   0.11  -0.05
  15   1    -0.03  -0.01  -0.04     0.01  -0.02   0.01     0.02  -0.05   0.02
  16   1    -0.05   0.04  -0.02     0.01  -0.03   0.01     0.03  -0.07   0.01
  17   1    -0.03  -0.00   0.09     0.04  -0.02  -0.05     0.08  -0.05  -0.09
  18   1     0.06   0.07   0.06    -0.02  -0.04  -0.03    -0.05  -0.08  -0.06
  19   1     0.03  -0.04  -0.03     0.00   0.04  -0.00     0.00   0.10   0.01
  20   1    -0.04  -0.02  -0.04     0.05   0.02   0.03     0.11   0.04   0.08
  21   1    -0.04  -0.03  -0.04     0.00   0.01  -0.01    -0.04   0.01  -0.03
  22   1    -0.04   0.03  -0.03    -0.02  -0.00   0.02    -0.07   0.02   0.06
  23   1     0.00  -0.01   0.03     0.02   0.01   0.00     0.04  -0.01   0.05
  24   1    -0.03  -0.02   0.02     0.02   0.03   0.00    -0.00   0.09   0.03
  25   1     0.02   0.07  -0.02     0.01  -0.02  -0.00     0.03   0.02  -0.01
  26   1    -0.02   0.01  -0.07     0.03  -0.01   0.01     0.04  -0.02  -0.05
  27   1     0.01   0.01   0.03     0.00  -0.03  -0.02     0.00  -0.05  -0.01
  28   1     0.02  -0.02   0.01    -0.02  -0.02  -0.00    -0.02  -0.08   0.01
  29   7    -0.02  -0.30   0.13     0.12   0.03  -0.05    -0.06  -0.19   0.10
  30   6    -0.03  -0.09  -0.02     0.11  -0.02   0.02    -0.07  -0.05  -0.01
  31   7    -0.05  -0.08  -0.01     0.13  -0.25   0.18    -0.11   0.17  -0.13
  32   6    -0.06   0.09  -0.04     0.10   0.21   0.11    -0.09  -0.08  -0.08
  33   6    -0.08   0.04  -0.08    -0.08  -0.03  -0.12     0.04   0.03   0.04
  34   6     0.13  -0.13  -0.00     0.01  -0.27  -0.00     0.03   0.12  -0.01
  35   6     0.06   0.14  -0.08    -0.13   0.22  -0.02     0.09  -0.09  -0.00
  36   6    -0.07   0.10  -0.16    -0.00   0.09  -0.08    -0.02  -0.05  -0.01
  37   6     0.05  -0.15   0.06    -0.04  -0.04   0.03     0.03  -0.06   0.03
  38   6    -0.11   0.26   0.10    -0.09   0.05  -0.00    -0.03   0.10   0.05
  39   6    -0.04  -0.08  -0.00    -0.03  -0.08  -0.06    -0.01  -0.03   0.02
  40   1    -0.03   0.05  -0.01    -0.02   0.19   0.00    -0.00  -0.09  -0.01
  41   1     0.01   0.03   0.00     0.13   0.08   0.11    -0.08  -0.04  -0.06
  42   1    -0.04   0.06   0.00    -0.04   0.03  -0.05     0.02  -0.02   0.03
  43   1    -0.06  -0.02  -0.07    -0.05  -0.03  -0.09     0.03   0.02   0.03
  44   1    -0.01  -0.08   0.08    -0.09  -0.15   0.09     0.05   0.07  -0.04
  45   1     0.12  -0.09  -0.02     0.12  -0.16  -0.03    -0.04   0.07   0.01
  46   1     0.06   0.08   0.00     0.02   0.12   0.09     0.00  -0.05  -0.05
  47   1    -0.01   0.07  -0.03    -0.13   0.13  -0.04     0.07  -0.05   0.01
  48   1    -0.03   0.06  -0.06    -0.01   0.02  -0.00    -0.01   0.01  -0.02
  49   1    -0.04  -0.00  -0.08     0.02   0.04  -0.07    -0.03  -0.04   0.01
  50   1     0.11  -0.03   0.05    -0.01  -0.02  -0.05     0.06  -0.01   0.07
  51   1    -0.01  -0.13   0.02    -0.03   0.03   0.04     0.01  -0.09  -0.01
  52   1    -0.03   0.21  -0.05    -0.04   0.05  -0.03    -0.00   0.08  -0.01
  53   1    -0.10   0.10   0.17    -0.04   0.03   0.05    -0.03   0.04   0.07
  54   1    -0.02  -0.04  -0.07    -0.06  -0.03  -0.02     0.01  -0.02  -0.03
  55   1    -0.01  -0.01   0.02     0.01  -0.07  -0.03    -0.01   0.01   0.02
  56   6     0.10  -0.20   0.03    -0.24   0.14  -0.01    -0.23  -0.05   0.01
  57   8    -0.01   0.07   0.09     0.04  -0.05  -0.17     0.03   0.02  -0.15
  58   6    -0.27   0.07   0.07     0.26   0.03   0.04     0.02   0.11   0.12
  59   8     0.03   0.14  -0.16    -0.03  -0.16   0.11    -0.01  -0.05  -0.03
                     25                     26                     27
                        a                      a                      a 
 Frequencies --   268.8097               288.7743               296.4365
 Red. masses --    13.4471                 9.4040                 8.2675
 Frc consts  --     0.0000                 0.0000                 0.0000
 IR Inten    --     1.1107                 1.1590                 0.2047
 Raman Activ --     0.0000                 0.0000                 0.0000
 Depolar     --     0.0000                 0.0000                 0.0000
 Atom AN      X      Y      Z        X      Y      Z        X      Y      Z
   1  28    -0.00   0.19   0.11     0.12   0.04   0.06    -0.06   0.07   0.01
   2   7     0.02   0.03  -0.19    -0.00   0.00  -0.02     0.06  -0.04  -0.01
   3   6     0.06  -0.03  -0.04     0.00  -0.00  -0.00     0.05  -0.17  -0.16
   4   7     0.07  -0.04   0.24     0.00  -0.00   0.02     0.01  -0.22   0.08
   5   6     0.05  -0.09  -0.00     0.00  -0.01  -0.00    -0.01  -0.01   0.16
   6   6    -0.07   0.09  -0.00    -0.01   0.00  -0.00     0.06   0.17   0.19
   7   6    -0.01   0.13   0.08     0.00   0.01   0.01    -0.10   0.06  -0.27
   8   6    -0.07  -0.06  -0.11    -0.00  -0.01  -0.01    -0.00   0.31  -0.10
   9   6     0.07  -0.04  -0.07     0.01  -0.00  -0.00     0.08  -0.16  -0.11
  10   6     0.02  -0.07  -0.05     0.01  -0.01  -0.01    -0.10  -0.19   0.16
  11   6    -0.01  -0.04   0.06     0.01  -0.02   0.01    -0.08   0.09  -0.15
  12   6    -0.00   0.07  -0.08    -0.01   0.00  -0.02     0.12  -0.01   0.16
  13   1     0.01  -0.05  -0.07     0.00  -0.00  -0.00     0.03  -0.00   0.01
  14   1     0.06  -0.06   0.03     0.00  -0.00   0.00    -0.04  -0.02   0.09
  15   1    -0.03   0.01  -0.03    -0.00  -0.00  -0.00     0.04   0.11   0.11
  16   1    -0.04   0.05  -0.01    -0.01   0.00  -0.00     0.09  -0.02   0.05
  17   1    -0.05   0.03   0.08    -0.00   0.00   0.01     0.02   0.08  -0.19
  18   1     0.06   0.06   0.05     0.01   0.01   0.01    -0.09  -0.11  -0.12
  19   1     0.01  -0.07  -0.01     0.00  -0.01   0.00    -0.06   0.22  -0.10
  20   1    -0.08  -0.03  -0.06    -0.01  -0.01  -0.01     0.08   0.14   0.10
  21   1     0.03  -0.00   0.02     0.00   0.00   0.00     0.03  -0.05   0.03
  22   1     0.05  -0.03  -0.05     0.00  -0.00  -0.00     0.04  -0.09  -0.03
  23   1    -0.02   0.02  -0.07    -0.00   0.00  -0.01     0.00  -0.09   0.11
  24   1     0.04  -0.08  -0.04     0.01  -0.01  -0.01    -0.12  -0.03   0.08
  25   1    -0.02  -0.06   0.01    -0.00  -0.02   0.00     0.03   0.16  -0.03
  26   1    -0.00   0.00   0.07     0.00  -0.00   0.02    -0.09   0.01  -0.17
  27   1     0.00   0.02  -0.03    -0.00  -0.00  -0.01     0.02   0.01   0.15
  28   1    -0.01   0.05  -0.02    -0.01   0.00  -0.01     0.14  -0.01   0.02
  29   7    -0.02  -0.18   0.08    -0.09  -0.12   0.07    -0.01  -0.03   0.01
  30   6    -0.03  -0.06  -0.01    -0.10  -0.21  -0.01    -0.01  -0.03  -0.01
  31   7    -0.08   0.13  -0.09    -0.06   0.00  -0.20    -0.02   0.01  -0.02
  32   6    -0.06  -0.04  -0.05    -0.05   0.08  -0.07    -0.01   0.01  -0.01
  33   6     0.05   0.01   0.01    -0.08   0.23   0.08     0.00   0.01   0.00
  34   6     0.01   0.09  -0.03     0.07  -0.13   0.28     0.01  -0.00   0.01
  35   6     0.06  -0.06  -0.01    -0.00   0.09   0.25     0.01   0.00   0.01
  36   6     0.00  -0.05  -0.01    -0.19  -0.16  -0.05    -0.01  -0.02  -0.01
  37   6     0.01  -0.07   0.04     0.03   0.06  -0.21    -0.01  -0.01  -0.01
  38   6    -0.06   0.10   0.05     0.18  -0.16  -0.10    -0.01   0.01  -0.00
  39   6    -0.04  -0.08   0.01     0.14   0.19  -0.01     0.00   0.00  -0.01
  40   1    -0.00  -0.05  -0.01    -0.03  -0.02   0.01    -0.01  -0.00   0.00
  41   1    -0.05  -0.02  -0.04    -0.01   0.04  -0.07    -0.00   0.00  -0.01
  42   1     0.02  -0.03   0.01    -0.05   0.13   0.04     0.00   0.00   0.00
  43   1     0.04   0.02   0.02    -0.08   0.02  -0.02     0.00   0.00  -0.00
  44   1     0.03   0.05  -0.04    -0.02  -0.07   0.20     0.00  -0.00   0.01
  45   1    -0.04   0.05  -0.00     0.09  -0.14   0.02     0.00  -0.00   0.00
  46   1    -0.00  -0.04  -0.03     0.04   0.06   0.15     0.00   0.00   0.01
  47   1     0.04  -0.04   0.01    -0.03   0.11   0.03    -0.00   0.01   0.00
  48   1    -0.00   0.00  -0.02    -0.08   0.02  -0.06    -0.00  -0.00  -0.01
  49   1    -0.01  -0.03   0.00    -0.09  -0.10  -0.05    -0.00  -0.01  -0.00
  50   1     0.06  -0.01   0.06    -0.05   0.01  -0.08     0.00  -0.00  -0.00
  51   1    -0.00  -0.09  -0.00     0.04   0.07  -0.08    -0.00  -0.01  -0.01
  52   1    -0.02   0.09  -0.02     0.08  -0.14   0.04    -0.00   0.01  -0.00
  53   1    -0.04   0.04   0.08     0.08  -0.07  -0.14    -0.01   0.00   0.01
  54   1    -0.02  -0.03  -0.03     0.18   0.07  -0.02     0.01   0.00  -0.01
  55   1    -0.01  -0.03   0.02    -0.01   0.18   0.01    -0.00   0.01  -0.00
  56   6    -0.36   0.18  -0.00    -0.12   0.04   0.00    -0.00   0.01   0.00
  57   8     0.06  -0.06  -0.25     0.03  -0.02  -0.08     0.00  -0.00   0.00
  58   6     0.35   0.08   0.10    -0.03  -0.01  -0.00     0.06   0.03   0.02
  59   8    -0.04  -0.23   0.14     0.01   0.01  -0.01    -0.02  -0.03   0.01
                     28                     29                     30
                        a                      a                      a 
 Frequencies --   326.1630               347.2868               350.6603
 Red. masses --    19.8191                 9.6751                10.0280
 Frc consts  --     0.0000                 0.0000                 0.0000
 IR Inten    --     1.8093                 5.1878                 0.4885
 Raman Activ --     0.0000                 0.0000                 0.0000
 Depolar     --     0.0000                 0.0000                 0.0000
 Atom AN      X      Y      Z        X      Y      Z        X      Y      Z
   1  28     0.25  -0.14   0.28     0.03   0.01   0.05     0.06  -0.05   0.07
   2   7     0.04   0.02   0.01    -0.03   0.03  -0.33     0.01   0.01  -0.03
   3   6     0.04  -0.04  -0.01    -0.01   0.10  -0.16     0.01   0.01  -0.02
   4   7     0.03  -0.06   0.06    -0.05   0.06  -0.29     0.01   0.00  -0.04
   5   6     0.02  -0.02   0.03     0.03  -0.23   0.03     0.02  -0.05   0.01
   6   6     0.00   0.03   0.03    -0.01  -0.17   0.08     0.01  -0.03   0.02
   7   6    -0.01   0.02  -0.04    -0.21  -0.16   0.25    -0.04  -0.03   0.03
   8   6    -0.00   0.06  -0.04    -0.19   0.01   0.09    -0.03   0.02   0.01
   9   6     0.01  -0.03  -0.04    -0.08   0.15   0.08    -0.02   0.02   0.00
  10   6     0.01  -0.06  -0.02     0.05   0.08   0.09     0.01   0.00   0.01
  11   6    -0.01  -0.04   0.02     0.13   0.07  -0.09     0.02   0.01  -0.01
  12   6    -0.03   0.01  -0.06     0.32   0.05   0.09     0.04   0.01   0.01
  13   1     0.01  -0.01  -0.01    -0.05  -0.11  -0.01    -0.00  -0.02  -0.00
  14   1     0.01  -0.01   0.02     0.05  -0.10   0.03     0.01  -0.02   0.01
  15   1     0.00   0.02   0.01     0.01   0.01   0.01     0.00   0.01   0.00
  16   1     0.01   0.00   0.01     0.02  -0.07   0.02     0.01  -0.01   0.00
  17   1     0.00   0.02  -0.03    -0.09  -0.06   0.12    -0.01  -0.01   0.01
  18   1    -0.01  -0.02  -0.02    -0.02  -0.00   0.09    -0.01  -0.00   0.01
  19   1    -0.01   0.04  -0.02    -0.08   0.00   0.05    -0.02   0.01   0.00
  20   1     0.01   0.02   0.01    -0.01  -0.01  -0.01     0.00   0.01   0.00
  21   1    -0.00  -0.02  -0.01    -0.01   0.05   0.06    -0.01   0.00   0.00
  22   1     0.00   0.00  -0.01     0.00   0.01   0.01    -0.01   0.01  -0.00
  23   1    -0.01  -0.01  -0.02     0.06  -0.03   0.11     0.01  -0.00   0.01
  24   1     0.01  -0.04  -0.02    -0.03   0.11   0.07    -0.00   0.01   0.01
  25   1    -0.00  -0.04   0.00     0.06   0.08  -0.02     0.01   0.01  -0.00
  26   1    -0.01  -0.00   0.03     0.02   0.01  -0.07     0.00   0.00  -0.00
  27   1    -0.00   0.01  -0.05     0.07  -0.04   0.20     0.01  -0.00   0.02
  28   1    -0.04   0.00  -0.01     0.27   0.07   0.00     0.03   0.01  -0.00
  29   7     0.06   0.02  -0.01     0.03  -0.06   0.02    -0.14   0.32  -0.10
  30   6     0.07   0.08   0.02     0.03  -0.01   0.00    -0.13  -0.00  -0.04
  31   7     0.04   0.01   0.11    -0.01   0.02   0.02     0.07  -0.23  -0.13
  32   6     0.04  -0.02   0.07    -0.01  -0.02   0.03     0.10   0.20  -0.08
  33   6    -0.02  -0.08   0.01    -0.03  -0.03   0.01     0.28   0.20  -0.04
  34   6    -0.04   0.01  -0.05    -0.01  -0.00  -0.02     0.01   0.07   0.08
  35   6    -0.02  -0.02  -0.11    -0.00   0.01  -0.05     0.02  -0.09   0.22
  36   6     0.01   0.08  -0.01     0.01   0.02  -0.03    -0.11  -0.16   0.09
  37   6    -0.02   0.06   0.06    -0.03   0.03   0.01     0.09  -0.22  -0.14
  38   6    -0.01  -0.03   0.01    -0.01  -0.01   0.01    -0.02   0.09  -0.05
  39   6     0.03   0.03  -0.02     0.04   0.02  -0.02    -0.23  -0.09   0.10
  40   1     0.02   0.02   0.01     0.00  -0.00   0.00    -0.04   0.09   0.00
  41   1     0.01  -0.01   0.04    -0.01  -0.01   0.01     0.11   0.09  -0.01
  42   1    -0.00  -0.02  -0.01    -0.01  -0.00   0.00     0.12  -0.05  -0.02
  43   1    -0.00  -0.02   0.01    -0.01  -0.01   0.00     0.17   0.12  -0.01
  44   1    -0.01   0.01  -0.04    -0.00  -0.00  -0.01     0.02   0.03   0.01
  45   1    -0.02   0.03   0.01     0.00   0.01   0.00    -0.05  -0.00  -0.02
  46   1    -0.01  -0.01  -0.07    -0.00   0.00  -0.02    -0.01  -0.04   0.07
  47   1     0.01  -0.04  -0.01     0.00  -0.01  -0.01     0.02  -0.01   0.05
  48   1    -0.01   0.02   0.02    -0.00   0.01  -0.00    -0.02  -0.04  -0.01
  49   1     0.00   0.02  -0.01     0.00   0.00  -0.02    -0.05  -0.05   0.08
  50   1    -0.03   0.02  -0.00    -0.02   0.01  -0.00     0.10  -0.06  -0.03
  51   1    -0.01   0.05   0.03    -0.00   0.02   0.00    -0.00  -0.12  -0.03
  52   1    -0.02  -0.03   0.01    -0.01  -0.01   0.00     0.05   0.10  -0.04
  53   1     0.01  -0.01  -0.02    -0.00  -0.00  -0.00    -0.04   0.04   0.06
  54   1     0.03   0.01  -0.01     0.04   0.01  -0.01    -0.23  -0.04   0.09
  55   1     0.00   0.02  -0.02    -0.00   0.03  -0.01     0.00  -0.17   0.06
  56   6    -0.46   0.16   0.03    -0.06   0.05  -0.01    -0.07   0.03   0.01
  57   8     0.07  -0.06  -0.28     0.01  -0.02  -0.05     0.02  -0.01  -0.04
  58   6    -0.47  -0.16  -0.14    -0.01  -0.02  -0.01    -0.10  -0.03  -0.04
  59   8     0.05   0.29  -0.14     0.01   0.00   0.01     0.01   0.07  -0.03
                     31                     32                     33
                        a                      a                      a 
 Frequencies --   366.6350               367.8058               374.5476
 Red. masses --     8.7246                 9.1442                 8.7376
 Frc consts  --     0.0000                 0.0000                 0.0000
 IR Inten    --     4.3307                 0.6057                 5.8164
 Raman Activ --     0.0000                 0.0000                 0.0000
 Depolar     --     0.0000                 0.0000                 0.0000
 Atom AN      X      Y      Z        X      Y      Z        X      Y      Z
   1  28    -0.04   0.00  -0.02     0.03  -0.02   0.03    -0.01   0.03  -0.03
   2   7     0.23   0.05   0.23    -0.07  -0.01  -0.08     0.04   0.01   0.06
   3   6     0.17   0.02   0.00    -0.05  -0.01  -0.01     0.03   0.00   0.01
   4   7     0.13  -0.03  -0.10    -0.04   0.01   0.03     0.02  -0.00  -0.01
   5   6     0.18  -0.21   0.10    -0.05   0.05  -0.03     0.03  -0.03   0.02
   6   6     0.04  -0.11   0.12    -0.01   0.03  -0.03     0.01  -0.02   0.02
   7   6    -0.20  -0.13   0.10     0.05   0.03  -0.03    -0.03  -0.02   0.01
   8   6    -0.13   0.25  -0.08     0.03  -0.07   0.02    -0.02   0.04  -0.02
   9   6    -0.26   0.14  -0.16     0.07  -0.04   0.05    -0.05   0.02  -0.03
  10   6     0.03  -0.00  -0.09    -0.00   0.00   0.03     0.00   0.00  -0.02
  11   6    -0.00  -0.03   0.07     0.01   0.01  -0.02    -0.01  -0.01   0.02
  12   6    -0.10   0.06  -0.14     0.04  -0.01   0.04    -0.03   0.01  -0.03
  13   1     0.02  -0.09   0.00    -0.01   0.02  -0.00     0.01  -0.01   0.00
  14   1     0.06  -0.08   0.05    -0.01   0.02  -0.01     0.01  -0.01   0.01
  15   1     0.02   0.05   0.01    -0.00  -0.01  -0.00     0.00   0.01   0.00
  16   1     0.04  -0.07   0.05    -0.01   0.02  -0.01     0.01  -0.01   0.01
  17   1    -0.06  -0.04   0.04     0.02   0.01  -0.01    -0.01  -0.01   0.00
  18   1    -0.02  -0.05   0.04     0.01   0.01  -0.01    -0.00  -0.01   0.00
  19   1    -0.08   0.19  -0.09     0.02  -0.05   0.03    -0.01   0.03  -0.02
  20   1     0.10   0.11   0.04    -0.03  -0.03  -0.01     0.02   0.02   0.01
  21   1    -0.15  -0.06  -0.09     0.04   0.02   0.03    -0.03  -0.01  -0.02
  22   1    -0.13   0.15  -0.04     0.04  -0.04   0.01    -0.02   0.03  -0.01
  23   1    -0.03  -0.00  -0.05     0.01   0.00   0.02    -0.01   0.00  -0.01
  24   1     0.04  -0.01  -0.04    -0.01   0.00   0.01     0.01  -0.00  -0.01
  25   1    -0.02  -0.08   0.01     0.01   0.03  -0.00    -0.00  -0.02   0.00
  26   1     0.01   0.00   0.09    -0.00  -0.00  -0.03     0.00   0.00   0.02
  27   1    -0.01   0.07  -0.19     0.01  -0.02   0.06    -0.01   0.01  -0.04
  28   1    -0.19  -0.03  -0.01     0.06   0.01   0.00    -0.05  -0.01  -0.00
  29   7    -0.01   0.04  -0.04    -0.11   0.08   0.01    -0.08  -0.15   0.27
  30   6    -0.01   0.01   0.03    -0.08  -0.03   0.14    -0.09  -0.12   0.07
  31   7    -0.01   0.05   0.01    -0.04  -0.11   0.11    -0.00  -0.35   0.14
  32   6    -0.04  -0.08  -0.09    -0.12  -0.15  -0.30    -0.02   0.17  -0.00
  33   6    -0.07   0.00  -0.04    -0.07   0.01  -0.24     0.22  -0.01  -0.12
  34   6     0.06  -0.03  -0.03     0.27  -0.01  -0.25     0.10   0.14  -0.20
  35   6     0.02   0.05   0.08     0.16   0.15   0.23     0.13  -0.04  -0.10
  36   6     0.08   0.01   0.08     0.27   0.04   0.24    -0.06   0.06  -0.05
  37   6     0.02   0.01   0.03    -0.05   0.01   0.04    -0.20   0.01  -0.07
  38   6     0.00  -0.00  -0.02    -0.07  -0.04   0.00    -0.09  -0.10   0.12
  39   6    -0.02  -0.02  -0.01    -0.11   0.05   0.04     0.01   0.23   0.10
  40   1     0.02  -0.07  -0.03     0.04  -0.12  -0.10    -0.06   0.14  -0.01
  41   1    -0.05  -0.03  -0.06    -0.09  -0.05  -0.16     0.08   0.07   0.07
  42   1    -0.04   0.05   0.01    -0.06   0.09   0.01     0.11  -0.13  -0.01
  43   1    -0.07  -0.03  -0.02    -0.10  -0.06  -0.11     0.17   0.08  -0.05
  44   1     0.01  -0.01   0.01     0.08   0.00  -0.08     0.07   0.07  -0.13
  45   1     0.02  -0.02  -0.02     0.04  -0.01  -0.09    -0.04   0.09  -0.04
  46   1     0.02   0.03   0.07     0.09   0.09   0.20     0.03  -0.02  -0.10
  47   1    -0.05   0.04   0.01    -0.11   0.10   0.04     0.07  -0.07  -0.00
  48   1     0.04  -0.02   0.02     0.13  -0.05   0.03    -0.02   0.05  -0.05
  49   1     0.04   0.02   0.03     0.11   0.06   0.11    -0.04  -0.01  -0.01
  50   1     0.02   0.00   0.02    -0.03  -0.00  -0.02    -0.15  -0.02  -0.14
  51   1     0.00  -0.01   0.01    -0.02   0.04   0.02    -0.04   0.15  -0.00
  52   1    -0.00  -0.01  -0.00    -0.01  -0.04   0.02     0.01  -0.07   0.07
  53   1     0.00  -0.00  -0.01    -0.02  -0.02  -0.03    -0.03  -0.04  -0.03
  54   1    -0.03  -0.01   0.00    -0.03   0.02   0.03     0.17   0.08  -0.02
  55   1     0.01  -0.03   0.00    -0.03   0.01   0.01    -0.07   0.22  -0.01
  56   6     0.01  -0.00   0.01    -0.09   0.01   0.01     0.03  -0.03  -0.02
  57   8    -0.00   0.00   0.01     0.00  -0.00  -0.04    -0.01   0.01  -0.00
  58   6     0.07   0.02  -0.00    -0.05  -0.01  -0.01     0.05   0.00   0.02
  59   8    -0.00  -0.03   0.02    -0.00   0.03  -0.02     0.00  -0.04   0.02
                     34                     35                     36
                        a                      a                      a 
 Frequencies --   389.1143               417.0677               427.2748
 Red. masses --     9.4508                 8.3295                16.4811
 Frc consts  --     0.0000                 0.0000                 0.0000
 IR Inten    --     1.5764                 6.3388                 4.9964
 Raman Activ --     0.0000                 0.0000                 0.0000
 Depolar     --     0.0000                 0.0000                 0.0000
 Atom AN      X      Y      Z        X      Y      Z        X      Y      Z
   1  28     0.02  -0.01   0.01    -0.03   0.01   0.01     0.02  -0.30  -0.17
   2   7    -0.19  -0.15  -0.17    -0.00  -0.00  -0.01    -0.06   0.02   0.16
   3   6    -0.13  -0.01   0.03    -0.00  -0.01  -0.00    -0.10   0.15   0.03
   4   7     0.10   0.19   0.37     0.00  -0.00  -0.00    -0.15   0.11   0.07
   5   6     0.13  -0.18  -0.23     0.00   0.01  -0.00    -0.12  -0.20   0.01
   6   6     0.36  -0.03  -0.18     0.00  -0.00  -0.01    -0.03   0.04   0.08
   7   6     0.01  -0.06  -0.10     0.00  -0.00   0.00     0.02   0.03  -0.05
   8   6     0.04   0.03   0.14     0.00  -0.01   0.01     0.02   0.07  -0.14
   9   6    -0.23   0.01   0.05    -0.01  -0.01   0.01     0.14   0.09  -0.06
  10   6    -0.05   0.17   0.02    -0.00  -0.00   0.00     0.02   0.06   0.00
  11   6    -0.05   0.09   0.02    -0.00   0.01   0.00     0.09  -0.15  -0.04
  12   6    -0.13  -0.07   0.10    -0.00   0.00   0.01     0.07  -0.13  -0.05
  13   1    -0.03  -0.11  -0.13     0.00   0.01   0.00    -0.10  -0.13  -0.10
  14   1     0.16  -0.10  -0.06    -0.00   0.01  -0.00     0.07  -0.15   0.07
  15   1     0.15   0.12   0.07     0.00  -0.00  -0.00     0.00   0.02   0.06
  16   1     0.25  -0.07  -0.13     0.00  -0.00  -0.00     0.03   0.01  -0.01
  17   1     0.03  -0.01  -0.07     0.00  -0.00   0.00    -0.00   0.02  -0.02
  18   1    -0.07  -0.01  -0.05    -0.00   0.00   0.00     0.03  -0.03  -0.02
  19   1    -0.01   0.07   0.00     0.00  -0.00   0.00     0.00   0.02  -0.03
  20   1     0.07   0.03   0.08    -0.00  -0.00   0.00     0.01   0.02  -0.04
  21   1    -0.09  -0.02  -0.06    -0.00  -0.00  -0.00     0.10   0.10   0.04
  22   1    -0.12   0.02   0.07    -0.01   0.00   0.00     0.11  -0.06  -0.06
  23   1    -0.03   0.08  -0.03    -0.00  -0.00   0.00     0.04   0.05  -0.00
  24   1    -0.01  -0.02  -0.02    -0.00  -0.00   0.00     0.02   0.02  -0.00
  25   1    -0.03   0.06   0.01    -0.00   0.01   0.00     0.02  -0.09  -0.01
  26   1     0.03  -0.00  -0.04    -0.00   0.00  -0.00     0.05  -0.04   0.03
  27   1    -0.04  -0.04   0.06    -0.00   0.00   0.00     0.02  -0.05  -0.02
  28   1     0.01   0.01   0.02     0.00   0.00   0.00     0.02  -0.07  -0.02
  29   7     0.00  -0.01   0.00     0.19  -0.08   0.10     0.01  -0.01   0.02
  30   6     0.00  -0.00  -0.00     0.19   0.03   0.21     0.01  -0.01   0.01
  31   7    -0.00   0.00  -0.00     0.27   0.11   0.13     0.01   0.00  -0.00
  32   6    -0.00   0.00   0.00     0.22  -0.07  -0.19     0.01  -0.00  -0.01
  33   6    -0.00  -0.00   0.00     0.10   0.16  -0.09     0.01   0.01  -0.00
  34   6    -0.00  -0.00   0.00     0.00   0.01   0.00     0.00   0.00   0.00
  35   6    -0.00   0.00  -0.01    -0.00  -0.07   0.10     0.00  -0.01   0.00
  36   6     0.00  -0.00  -0.01    -0.32   0.05   0.03    -0.02  -0.00  -0.01
  37   6    -0.00   0.00   0.00    -0.09   0.03   0.09    -0.02  -0.00  -0.00
  38   6     0.00   0.00   0.00    -0.22  -0.06  -0.14    -0.02  -0.01   0.01
  39   6     0.01  -0.00  -0.00    -0.17  -0.03  -0.14    -0.01   0.00   0.00
  40   1    -0.00   0.00   0.00     0.17  -0.17  -0.05     0.01  -0.01  -0.00
  41   1    -0.00  -0.00   0.00    -0.06  -0.04  -0.20    -0.00  -0.00  -0.01
  42   1    -0.00  -0.00   0.00     0.02   0.07  -0.05     0.00   0.00  -0.00
  43   1    -0.00  -0.00   0.00     0.00   0.02  -0.01     0.00   0.00  -0.00
  44   1    -0.00  -0.00   0.00     0.01   0.01   0.02     0.00   0.00   0.00
  45   1     0.00   0.00   0.00    -0.03  -0.03  -0.04    -0.00  -0.00  -0.00
  46   1    -0.00  -0.00  -0.00     0.01  -0.01  -0.02     0.00  -0.00  -0.00
  47   1     0.00   0.00  -0.00     0.02  -0.05   0.04     0.00  -0.00   0.00
  48   1     0.00  -0.00  -0.00    -0.23   0.22   0.01    -0.01   0.01  -0.00
  49   1     0.00   0.00  -0.00    -0.23  -0.17  -0.09    -0.01  -0.01  -0.01
  50   1    -0.00   0.00   0.00    -0.05   0.01   0.04    -0.01  -0.00  -0.00
  51   1     0.00   0.00  -0.00    -0.07   0.02   0.08    -0.00   0.01   0.00
  52   1    -0.00   0.00   0.00    -0.07  -0.06  -0.02    -0.00   0.00   0.00
  53   1     0.00   0.00   0.00    -0.06  -0.03  -0.09    -0.01  -0.00   0.00
  54   1     0.01   0.00  -0.00    -0.07  -0.02  -0.06     0.01   0.00  -0.00
  55   1     0.00   0.00  -0.00    -0.05  -0.03  -0.08    -0.01   0.01  -0.01
  56   6    -0.02   0.03  -0.00     0.06  -0.01  -0.03    -0.03   0.34   0.21
  57   8     0.00  -0.01  -0.01    -0.01   0.00   0.00     0.07  -0.10   0.21
  58   6     0.01   0.01   0.01    -0.01  -0.02   0.01     0.00   0.39   0.15
  59   8     0.00  -0.01  -0.00     0.01  -0.01   0.01    -0.07   0.07  -0.20
                     37                     38                     39
                        a                      a                      a 
 Frequencies --   429.6279               467.8538               477.9778
 Red. masses --    14.1907                 8.4560                12.8091
 Frc consts  --     0.0000                 0.0000                 0.0000
 IR Inten    --    15.3025                 1.5594                 0.6453
 Raman Activ --     0.0000                 0.0000                 0.0000
 Depolar     --     0.0000                 0.0000                 0.0000
 Atom AN      X      Y      Z        X      Y      Z        X      Y      Z
   1  28    -0.00   0.27   0.10     0.01  -0.01  -0.04    -0.00   0.04   0.04
   2   7    -0.07  -0.01   0.20    -0.18   0.01   0.09    -0.02   0.02   0.04
   3   6    -0.12   0.17   0.04    -0.21  -0.18  -0.25    -0.01  -0.01   0.00
   4   7    -0.17   0.14   0.09     0.05   0.07  -0.09    -0.01  -0.01  -0.01
   5   6    -0.12  -0.22   0.00     0.09  -0.01   0.05    -0.01  -0.02   0.00
   6   6    -0.03   0.04   0.09    -0.02  -0.05   0.05    -0.01   0.00   0.01
   7   6     0.02   0.02  -0.05    -0.08  -0.05   0.10    -0.01   0.00  -0.00
   8   6     0.03   0.08  -0.16    -0.07   0.02  -0.05    -0.00   0.00  -0.01
   9   6     0.15   0.10  -0.07     0.11  -0.30  -0.03     0.01  -0.03  -0.01
  10   6     0.01   0.09   0.00     0.24   0.12  -0.07     0.04  -0.01  -0.01
  11   6     0.09  -0.16  -0.04     0.20   0.34   0.12     0.04   0.03   0.01
  12   6     0.06  -0.17  -0.03    -0.23   0.05   0.09    -0.02   0.00   0.01
  13   1    -0.12  -0.15  -0.11    -0.02  -0.04  -0.00    -0.01  -0.01  -0.01
  14   1     0.08  -0.17   0.08     0.07  -0.03   0.03     0.01  -0.01   0.01
  15   1     0.00   0.03   0.07    -0.01  -0.01  -0.02    -0.00   0.00   0.00
  16   1     0.03   0.01  -0.01    -0.02  -0.02   0.04    -0.00   0.00   0.00
  17   1     0.00   0.02  -0.03    -0.06  -0.03   0.08    -0.00   0.00  -0.00
  18   1     0.03  -0.04  -0.02     0.04   0.02   0.05    -0.00  -0.00  -0.00
  19   1     0.00   0.03  -0.04    -0.04   0.08  -0.07    -0.00   0.01  -0.01
  20   1     0.02   0.02  -0.05     0.03   0.04   0.07     0.00   0.00   0.01
  21   1     0.12   0.11   0.05     0.14   0.03   0.14     0.01  -0.00  -0.00
  22   1     0.12  -0.07  -0.06     0.14  -0.27  -0.03     0.00  -0.01  -0.00
  23   1     0.04   0.07  -0.00    -0.02   0.04  -0.10     0.00   0.00  -0.01
  24   1     0.01   0.03  -0.00     0.16  -0.01  -0.06     0.02  -0.01  -0.01
  25   1     0.02  -0.09  -0.01     0.08   0.20   0.04     0.02   0.02   0.00
  26   1     0.06  -0.05   0.03     0.06   0.06  -0.09     0.00   0.01  -0.01
  27   1     0.02  -0.05  -0.02    -0.05  -0.04  -0.11    -0.00  -0.01  -0.02
  28   1     0.01  -0.08  -0.01    -0.19   0.03   0.05    -0.02  -0.00   0.00
  29   7    -0.00   0.01  -0.02    -0.02  -0.02   0.01    -0.02  -0.02   0.03
  30   6    -0.00   0.01   0.00    -0.01   0.02   0.01    -0.03   0.04  -0.02
  31   7     0.01  -0.00   0.01     0.01  -0.01   0.01     0.01  -0.01  -0.03
  32   6     0.01  -0.00   0.00     0.01  -0.00   0.00     0.02  -0.01   0.01
  33   6    -0.00  -0.00   0.00     0.00  -0.00   0.00    -0.01  -0.01   0.01
  34   6    -0.00  -0.00   0.00    -0.00  -0.00   0.00    -0.00  -0.00   0.01
  35   6    -0.00   0.00   0.00    -0.00  -0.00  -0.00    -0.00   0.01  -0.01
  36   6     0.01   0.01   0.01    -0.00   0.02   0.01     0.03   0.03   0.02
  37   6     0.01   0.00   0.01     0.02   0.00  -0.00     0.02  -0.02  -0.04
  38   6     0.01   0.00  -0.02     0.01  -0.00  -0.03     0.01   0.00  -0.04
  39   6    -0.00  -0.00  -0.01    -0.01  -0.00  -0.00    -0.03   0.01  -0.00
  40   1     0.00   0.00   0.00     0.00   0.00   0.00    -0.00   0.01   0.00
  41   1     0.00  -0.00   0.00     0.01   0.00   0.00     0.02  -0.00   0.01
  42   1    -0.00   0.00  -0.00    -0.00   0.00  -0.00    -0.01   0.01   0.00
  43   1    -0.00  -0.00   0.00    -0.00  -0.00   0.00    -0.01  -0.01   0.01
  44   1    -0.00  -0.00   0.00    -0.00  -0.00   0.00    -0.00  -0.00   0.01
  45   1    -0.00  -0.00   0.00     0.00  -0.00   0.00     0.01  -0.00   0.00
  46   1    -0.00   0.00   0.00    -0.00  -0.00  -0.01    -0.00   0.00  -0.01
  47   1    -0.00  -0.00   0.00     0.00  -0.01   0.00     0.00  -0.00   0.00
  48   1     0.00   0.00   0.00     0.00   0.00   0.00     0.03  -0.03   0.02
  49   1     0.00   0.00   0.00     0.00   0.01   0.01     0.03   0.04   0.03
  50   1     0.01   0.00   0.00     0.01   0.00   0.00     0.01  -0.00  -0.00
  51   1     0.00  -0.00   0.00     0.00  -0.00   0.00    -0.00  -0.02  -0.01
  52   1     0.00  -0.00  -0.00     0.01  -0.01  -0.00     0.01  -0.01  -0.00
  53   1     0.00   0.00  -0.01     0.01  -0.00  -0.02     0.00  -0.00  -0.02
  54   1    -0.01  -0.00  -0.00    -0.01  -0.00  -0.01    -0.01   0.00  -0.01
  55   1     0.00  -0.01   0.00    -0.00   0.00   0.01    -0.01   0.00   0.01
  56   6     0.06  -0.35  -0.17    -0.02  -0.04   0.05     0.30   0.37  -0.40
  57   8    -0.06   0.10  -0.14     0.02   0.01   0.04    -0.20  -0.12  -0.22
  58   6    -0.03  -0.34  -0.14     0.00  -0.01  -0.04    -0.30  -0.06   0.53
  59   8     0.05  -0.04   0.17    -0.01   0.02  -0.00     0.20  -0.21   0.03
                     40                     41                     42
                        a                      a                      a 
 Frequencies --   488.2471               501.2771               510.1511
 Red. masses --     9.9821                10.1428                 7.8210
 Frc consts  --     0.0000                 0.0000                 0.0000
 IR Inten    --     5.0908                 1.3206                 0.0901
 Raman Activ --     0.0000                 0.0000                 0.0000
 Depolar     --     0.0000                 0.0000                 0.0000
 Atom AN      X      Y      Z        X      Y      Z        X      Y      Z
   1  28    -0.01  -0.04   0.07     0.01   0.03  -0.11    -0.01  -0.04   0.05
   2   7    -0.01  -0.02   0.01    -0.06   0.30   0.08    -0.00   0.03   0.02
   3   6    -0.01  -0.01  -0.02    -0.04   0.01   0.04    -0.01   0.00   0.00
   4   7     0.02   0.02  -0.02    -0.21  -0.18   0.19    -0.02  -0.01   0.02
   5   6     0.03  -0.00   0.02    -0.35   0.01  -0.18    -0.04   0.01  -0.02
   6   6    -0.01   0.00   0.01     0.10  -0.06  -0.11     0.02  -0.01  -0.02
   7   6    -0.00   0.00   0.00    -0.05  -0.05   0.06    -0.01  -0.01   0.02
   8   6    -0.00   0.00  -0.01    -0.03   0.03   0.02    -0.01   0.01  -0.01
   9   6     0.01  -0.02  -0.00    -0.04  -0.03  -0.01     0.01  -0.01  -0.00
  10   6     0.01   0.03  -0.01     0.19  -0.30   0.04     0.02  -0.02   0.00
  11   6     0.00   0.02   0.01     0.21   0.05   0.02     0.02   0.01   0.00
  12   6    -0.04  -0.01   0.01     0.16   0.21  -0.13     0.01   0.02  -0.01
  13   1     0.00  -0.01  -0.00    -0.04   0.06   0.02    -0.00   0.01   0.01
  14   1     0.01  -0.01   0.01    -0.14   0.06  -0.11    -0.02   0.01  -0.02
  15   1    -0.01  -0.01  -0.01     0.09   0.10   0.17     0.01   0.01   0.02
  16   1    -0.02   0.00   0.01     0.22  -0.07  -0.15     0.03  -0.01  -0.02
  17   1    -0.00   0.00   0.00    -0.05  -0.05   0.09    -0.01  -0.01   0.02
  18   1     0.00  -0.00   0.00     0.03   0.07   0.04     0.01   0.01   0.01
  19   1    -0.00   0.00  -0.01    -0.03   0.06  -0.02    -0.01   0.01  -0.01
  20   1     0.00   0.00   0.00     0.04   0.03   0.04     0.01   0.01   0.01
  21   1     0.02   0.01   0.01    -0.04  -0.03  -0.02     0.01   0.00   0.01
  22   1     0.02  -0.02  -0.01    -0.04   0.04   0.00     0.01  -0.00  -0.00
  23   1    -0.01   0.01  -0.01     0.04  -0.02  -0.05     0.00   0.00  -0.01
  24   1     0.01   0.01  -0.00     0.11  -0.13  -0.02     0.01  -0.01  -0.00
  25   1    -0.00   0.01   0.00     0.12   0.02  -0.01     0.01   0.00  -0.00
  26   1     0.01   0.00  -0.00    -0.06   0.05   0.01    -0.01   0.01   0.00
  27   1    -0.01  -0.00  -0.01     0.05   0.01  -0.07     0.00   0.00  -0.01
  28   1    -0.03  -0.00   0.00     0.01   0.06  -0.03    -0.01   0.00  -0.00
  29   7     0.19   0.31  -0.22     0.00   0.02  -0.05     0.06   0.10   0.17
  30   6     0.15  -0.19  -0.08     0.00  -0.01   0.00     0.04  -0.06  -0.02
  31   7    -0.12   0.08   0.04    -0.03  -0.01   0.04     0.11   0.20  -0.27
  32   6    -0.17   0.04  -0.07    -0.05   0.02  -0.01     0.27  -0.05   0.21
  33   6     0.03   0.06  -0.05     0.01   0.01  -0.01    -0.14  -0.23   0.02
  34   6     0.04   0.02  -0.04     0.00   0.00  -0.00     0.12   0.05  -0.15
  35   6     0.03  -0.03   0.05     0.00  -0.01   0.01     0.09   0.01   0.10
  36   6    -0.03  -0.27  -0.19    -0.01  -0.01  -0.01    -0.07  -0.12  -0.06
  37   6    -0.18   0.03   0.14     0.01   0.02   0.04    -0.10  -0.11  -0.18
  38   6    -0.08  -0.02   0.38     0.02   0.00   0.02    -0.09  -0.01   0.04
  39   6     0.26  -0.05   0.06     0.04  -0.02  -0.02    -0.12   0.08   0.13
  40   1     0.00  -0.05  -0.02    -0.00  -0.00  -0.00    -0.01   0.15   0.04
  41   1    -0.10   0.00  -0.07    -0.02   0.00  -0.01     0.13  -0.02   0.21
  42   1     0.03  -0.04   0.01     0.01  -0.02   0.00    -0.13   0.19  -0.01
  43   1     0.05   0.05  -0.04     0.02   0.02  -0.01    -0.24  -0.22   0.02
  44   1     0.03   0.02  -0.02     0.00   0.00   0.00     0.12   0.09  -0.20
  45   1    -0.02   0.01  -0.02    -0.00  -0.00  -0.00    -0.10   0.16   0.03
  46   1     0.01   0.00   0.13     0.00  -0.00   0.00     0.06   0.04   0.14
  47   1    -0.04   0.09  -0.03     0.00   0.00   0.00    -0.07   0.09  -0.01
  48   1    -0.08   0.04  -0.07    -0.01   0.01  -0.00    -0.05   0.04  -0.05
  49   1    -0.07  -0.17  -0.12    -0.02  -0.02  -0.01    -0.06  -0.08  -0.03
  50   1    -0.14   0.00   0.01     0.00   0.01   0.01    -0.05  -0.03  -0.02
  51   1     0.01   0.09  -0.01     0.01   0.01   0.01    -0.03  -0.03  -0.05
  52   1    -0.07   0.11   0.02    -0.01   0.00  -0.00     0.05   0.03   0.02
  53   1    -0.04   0.03   0.24     0.01   0.00   0.01    -0.06  -0.00   0.02
  54   1     0.08   0.00   0.09     0.01  -0.00   0.00    -0.04   0.02   0.05
  55   1     0.06  -0.02  -0.07     0.01  -0.01  -0.00    -0.03   0.00   0.00
  56   6     0.07   0.02  -0.10    -0.02  -0.01   0.07     0.03  -0.03  -0.04
  57   8    -0.04  -0.01  -0.06     0.03   0.00   0.06    -0.02   0.01  -0.03
  58   6    -0.04   0.00   0.02    -0.03  -0.10   0.02     0.03   0.04  -0.04
  59   8     0.01   0.01  -0.02     0.04  -0.04   0.05    -0.03   0.03  -0.02
                     43                     44                     45
                        a                      a                      a 
 Frequencies --   512.4397               521.3492               530.0660
 Red. masses --     8.5770                 7.5130                24.4437
 Frc consts  --     0.0000                 0.0000                 0.0000
 IR Inten    --     3.1600                 3.7816                 7.8858
 Raman Activ --     0.0000                 0.0000                 0.0000
 Depolar     --     0.0000                 0.0000                 0.0000
 Atom AN      X      Y      Z        X      Y      Z        X      Y      Z
   1  28     0.01   0.05  -0.07    -0.01  -0.04   0.12    -0.00   0.22  -0.46
   2   7    -0.00  -0.02  -0.02     0.08  -0.10   0.06     0.02  -0.07  -0.01
   3   6     0.00  -0.00   0.00     0.04   0.02  -0.05     0.02  -0.01  -0.02
   4   7     0.02   0.01  -0.03     0.07   0.07   0.13     0.07   0.04   0.01
   5   6     0.04  -0.02   0.02     0.01   0.22  -0.08     0.09   0.06   0.01
   6   6    -0.02   0.02   0.02     0.14  -0.16  -0.15     0.03  -0.03  -0.02
   7   6     0.01   0.01  -0.02    -0.13  -0.11   0.18    -0.03  -0.02   0.04
   8   6     0.01  -0.01   0.01    -0.13   0.11  -0.16    -0.03   0.02  -0.04
[...]
   6   6    -0.01   0.01   0.00    -0.00   0.00   0.00     0.11   0.03   0.03
   7   6     0.02   0.02  -0.01    -0.00  -0.00   0.00     0.10   0.10  -0.01
   8   6     0.01   0.01   0.01    -0.00  -0.00  -0.00     0.06   0.15   0.03
   9   6     0.01   0.00   0.01    -0.00   0.00   0.00     0.05   0.03   0.05
  10   6    -0.00   0.00  -0.03    -0.00   0.00  -0.00     0.00  -0.00   0.01
  11   6    -0.03   0.09  -0.25    -0.00   0.00  -0.00     0.00  -0.01   0.03
  12   6     0.01   0.00  -0.03     0.00   0.00   0.00    -0.01  -0.00   0.00
  13   1     0.02  -0.04   0.01    -0.00   0.00  -0.00    -0.04   0.07  -0.02
  14   1     0.00   0.01   0.01    -0.00  -0.00  -0.00    -0.03  -0.08  -0.06
  15   1     0.04  -0.01  -0.01     0.00  -0.00  -0.00    -0.26   0.06   0.05
  16   1    -0.01  -0.01  -0.01    -0.00  -0.00  -0.00    -0.15  -0.17  -0.17
  17   1    -0.05  -0.06  -0.06     0.00   0.00   0.00    -0.29  -0.29  -0.31
  18   1    -0.02  -0.01   0.10     0.00   0.00  -0.00    -0.08  -0.04   0.35
  19   1    -0.03  -0.03  -0.03     0.00   0.00   0.00    -0.22  -0.21  -0.22
  20   1     0.00   0.01  -0.00    -0.00   0.00  -0.00     0.04  -0.32   0.11
  21   1     0.00  -0.00   0.00     0.00  -0.00  -0.00     0.02  -0.01   0.00
  22   1    -0.03  -0.01  -0.02    -0.00  -0.00  -0.00    -0.20  -0.08  -0.17
  23   1    -0.02   0.01   0.02     0.00  -0.00  -0.00     0.00  -0.00  -0.00
  24   1     0.01  -0.02   0.06     0.00  -0.00   0.00    -0.00   0.00  -0.01
  25   1     0.18  -0.13   0.89     0.00  -0.00   0.00    -0.02   0.02  -0.10
  26   1    -0.06  -0.18   0.02    -0.00  -0.00   0.00     0.00   0.00   0.00
  27   1    -0.06  -0.00  -0.01    -0.00  -0.00  -0.00     0.03   0.00   0.00
  28   1     0.02  -0.01   0.08     0.00   0.00  -0.00    -0.00   0.00  -0.02
  29   7     0.00  -0.00  -0.00    -0.00  -0.00   0.00    -0.00   0.00   0.00
  30   6     0.00  -0.00  -0.00     0.01  -0.00   0.00    -0.00  -0.00  -0.00
  31   7    -0.00   0.00   0.00    -0.00  -0.00  -0.00     0.00   0.00   0.00
  32   6     0.00   0.00   0.00    -0.03  -0.01  -0.05     0.00   0.00   0.00
  33   6     0.00  -0.00   0.00    -0.12   0.08   0.00     0.01   0.00   0.00
  34   6    -0.00   0.00   0.00    -0.06   0.01   0.06     0.01  -0.00  -0.01
  35   6     0.00   0.00   0.00    -0.01  -0.01  -0.04     0.01  -0.02  -0.01
  36   6    -0.00  -0.00   0.00     0.13  -0.12   0.04     0.01  -0.01   0.00
  37   6     0.00   0.00   0.00    -0.00   0.00  -0.00    -0.00  -0.00  -0.00
  38   6    -0.00   0.00   0.00    -0.00   0.01   0.00     0.00  -0.00  -0.00
  39   6     0.01   0.00  -0.00     0.00   0.00  -0.00    -0.00  -0.00   0.00
  40   1    -0.00  -0.00  -0.00     0.11   0.09   0.18    -0.01  -0.01  -0.01
  41   1    -0.00   0.00   0.00     0.01  -0.03  -0.01    -0.00   0.01   0.00
  42   1    -0.00  -0.00  -0.00     0.16   0.07   0.01    -0.05  -0.02  -0.00
  43   1    -0.00   0.00   0.00     0.27  -0.35  -0.02     0.00   0.00   0.00
  44   1     0.00  -0.00   0.00     0.14  -0.20   0.01    -0.03   0.05  -0.00
  45   1     0.00   0.00  -0.00     0.07   0.19  -0.22    -0.01  -0.04   0.04
  46   1    -0.00   0.00   0.00     0.04  -0.05  -0.00    -0.03   0.04  -0.00
  47   1    -0.00  -0.00  -0.01     0.00   0.08   0.16     0.00   0.03   0.05
  48   1     0.00   0.00   0.00     0.04  -0.00   0.02     0.00   0.00   0.00
  49   1     0.00  -0.00   0.00    -0.49   0.45  -0.15    -0.04   0.04  -0.01
  50   1     0.00  -0.00   0.00    -0.00  -0.00  -0.00    -0.00   0.00  -0.00
  51   1    -0.00   0.00  -0.00     0.01  -0.00   0.01     0.00  -0.00   0.00
  52   1     0.00  -0.00  -0.00     0.01  -0.01  -0.02    -0.00   0.00   0.01
  53   1     0.00  -0.01   0.00     0.00  -0.02   0.00    -0.00   0.01  -0.00
  54   1     0.00   0.01  -0.00     0.00   0.00  -0.00    -0.00  -0.00   0.00
  55   1    -0.02  -0.01   0.01    -0.01  -0.00   0.00     0.01   0.01  -0.00
  56   6    -0.00   0.00  -0.00    -0.00  -0.00  -0.00     0.00   0.00   0.00
  57   8     0.00  -0.00   0.00    -0.00   0.00  -0.00    -0.00  -0.00  -0.00
  58   6    -0.00   0.00  -0.00     0.00  -0.00   0.00    -0.00   0.00  -0.00
  59   8     0.00  -0.00   0.00    -0.00   0.00  -0.00     0.00  -0.00   0.00
                    163                    164                    165
                        a                      a                      a 
 Frequencies --  2984.4816              2985.3746              2985.5148
 Red. masses --     1.6818                 1.5955                 1.6721
 Frc consts  --     0.0000                 0.0000                 0.0000
 IR Inten    --    39.4526               130.7186                18.2008
 Raman Activ --     0.0000                 0.0000                 0.0000
 Depolar     --     0.0000                 0.0000                 0.0000
 Atom AN      X      Y      Z        X      Y      Z        X      Y      Z
   1  28    -0.00   0.00  -0.00     0.00   0.00   0.00    -0.00   0.00  -0.00
   2   7     0.01   0.01  -0.00     0.00   0.00  -0.00     0.00   0.00  -0.00
   3   6    -0.00   0.00   0.00     0.00   0.00   0.00     0.00   0.00   0.00
   4   7    -0.00  -0.00  -0.00    -0.00   0.00  -0.00     0.00  -0.00   0.00
   5   6     0.00  -0.00   0.00    -0.01   0.04   0.00     0.01  -0.03   0.00
   6   6     0.00  -0.00  -0.00    -0.06   0.11   0.11     0.06  -0.06  -0.06
   7   6    -0.00  -0.00  -0.00    -0.00   0.01   0.05     0.02   0.01  -0.03
   8   6    -0.00   0.00  -0.00    -0.01   0.06  -0.03     0.02  -0.01   0.02
   9   6     0.00   0.00   0.00     0.01   0.01   0.01     0.00  -0.00   0.00
  10   6     0.00  -0.00   0.00    -0.00   0.00   0.00     0.00  -0.00  -0.00
  11   6    -0.01  -0.04   0.02    -0.00  -0.01   0.01    -0.00  -0.01   0.00
  12   6     0.23   0.01   0.01     0.03   0.00   0.00     0.04   0.00   0.00
  13   1    -0.01   0.01  -0.00     0.06  -0.10   0.04    -0.05   0.08  -0.03
  14   1    -0.00  -0.00  -0.00    -0.02  -0.04  -0.03     0.01   0.01   0.01
  15   1    -0.01   0.00   0.00     0.52  -0.09  -0.07    -0.38   0.07   0.05
  16   1     0.01   0.01   0.01    -0.31  -0.30  -0.31     0.17   0.17   0.17
  17   1     0.01   0.01   0.01    -0.04  -0.03  -0.03    -0.03  -0.03  -0.03
  18   1     0.00   0.00  -0.00     0.04   0.02  -0.14    -0.04  -0.02   0.15
  19   1     0.01   0.01   0.01     0.03   0.04   0.02    -0.05  -0.05  -0.05
  20   1     0.00  -0.02   0.01     0.02  -0.24   0.07    -0.01   0.09  -0.02
  21   1    -0.00   0.00   0.00     0.02  -0.01  -0.00    -0.01   0.01   0.00
  22   1    -0.01  -0.00  -0.01    -0.05  -0.02  -0.04    -0.01  -0.00  -0.00
  23   1    -0.00   0.00   0.00     0.01  -0.01  -0.01    -0.01   0.01   0.01
  24   1    -0.00   0.00  -0.01    -0.00   0.00  -0.00    -0.00   0.00  -0.01
  25   1    -0.01  -0.00  -0.03    -0.01   0.00  -0.03    -0.00   0.00  -0.01
  26   1     0.05   0.16  -0.05     0.01   0.03  -0.01     0.01   0.02  -0.01
  27   1    -0.91  -0.06  -0.14    -0.11  -0.01  -0.02    -0.16  -0.01  -0.02
  28   1     0.06  -0.01   0.12     0.01  -0.00   0.01     0.01  -0.00   0.02
  29   7    -0.00  -0.00   0.00     0.00  -0.00  -0.00     0.00  -0.00  -0.00
  30   6     0.00  -0.00  -0.00    -0.00   0.00  -0.00    -0.00   0.00  -0.00
  31   7     0.00   0.00   0.00    -0.00  -0.00  -0.00    -0.00  -0.00  -0.00
  32   6     0.01   0.00   0.01    -0.01  -0.00  -0.02    -0.02  -0.01  -0.03
  33   6     0.02   0.01   0.00    -0.05  -0.03  -0.00    -0.09  -0.04  -0.00
  34   6     0.02  -0.00  -0.02    -0.05   0.01   0.04    -0.07   0.01   0.07
  35   6     0.02  -0.03  -0.01    -0.03   0.06   0.04    -0.05   0.10   0.07
  36   6     0.02  -0.02   0.00    -0.04   0.04  -0.01    -0.06   0.06  -0.02
  37   6     0.00  -0.00   0.00    -0.00  -0.00  -0.00    -0.00  -0.00  -0.00
  38   6     0.00  -0.00  -0.00     0.00  -0.01  -0.00     0.00  -0.01   0.00
  39   6    -0.01  -0.00   0.00    -0.00  -0.00   0.00    -0.00  -0.00   0.00
  40   1    -0.02  -0.01  -0.03     0.04   0.04   0.07     0.07   0.06   0.11
  41   1    -0.00   0.01   0.00     0.01  -0.02  -0.01     0.01  -0.04  -0.01
  42   1    -0.10  -0.03  -0.01     0.23   0.08   0.01     0.35   0.12   0.02
  43   1     0.01  -0.01  -0.00    -0.04   0.03   0.00    -0.04   0.02   0.00
  44   1    -0.05   0.06  -0.00     0.11  -0.15   0.00     0.19  -0.25   0.00
  45   1    -0.02  -0.05   0.06     0.05   0.13  -0.15     0.07   0.21  -0.24
  46   1    -0.06   0.07  -0.00     0.11  -0.13   0.01     0.17  -0.21   0.01
  47   1     0.00   0.02   0.05    -0.01  -0.08  -0.17    -0.02  -0.14  -0.28
  48   1     0.00  -0.00   0.00    -0.01   0.00  -0.00    -0.01   0.00  -0.00
  49   1    -0.06   0.06  -0.02     0.14  -0.12   0.04     0.22  -0.20   0.07
  50   1     0.00   0.00   0.00    -0.00   0.00  -0.00    -0.00   0.00  -0.00
  51   1    -0.00   0.00  -0.00     0.01  -0.00   0.01     0.01  -0.00   0.01
  52   1    -0.00   0.01   0.01    -0.00   0.00   0.01     0.00  -0.00  -0.01
  53   1    -0.00   0.01  -0.00    -0.00   0.04  -0.01    -0.00   0.03  -0.01
  54   1    -0.00  -0.02   0.01     0.00  -0.00   0.00     0.00  -0.00   0.00
  55   1     0.04   0.02  -0.01     0.00   0.00  -0.00     0.01   0.00  -0.00
  56   6    -0.00   0.00  -0.00     0.00  -0.00   0.00     0.00   0.00   0.00
  57   8     0.00   0.00   0.00    -0.00   0.00  -0.00    -0.00   0.00  -0.00
  58   6     0.00  -0.00   0.00    -0.00   0.00  -0.00    -0.00   0.00  -0.00
  59   8    -0.00   0.00  -0.00     0.00  -0.00   0.00     0.00  -0.00   0.00
                    166                    167                    168
                        a                      a                      a 
 Frequencies --  2987.2111              2989.9907              2991.1200
 Red. masses --     1.6160                 1.9536                 1.5451
 Frc consts  --     0.0000                 0.0000                 0.0000
 IR Inten    --    63.4823                53.6268                52.1006
 Raman Activ --     0.0000                 0.0000                 0.0000
 Depolar     --     0.0000                 0.0000                 0.0000
 Atom AN      X      Y      Z        X      Y      Z        X      Y      Z
   1  28    -0.00   0.00   0.00     0.00   0.00  -0.00    -0.00  -0.00  -0.00
   2   7    -0.00  -0.00   0.00    -0.00   0.00   0.00    -0.00   0.00  -0.00
   3   6     0.00  -0.00  -0.00    -0.00  -0.00  -0.00     0.00   0.00   0.00
   4   7    -0.00   0.00  -0.00     0.00  -0.00   0.00    -0.00   0.00  -0.00
   5   6    -0.00   0.00   0.00    -0.00  -0.00  -0.00     0.00   0.01   0.01
   6   6    -0.00   0.00   0.00    -0.00  -0.00  -0.00    -0.00   0.03   0.03
   7   6     0.00   0.00   0.00    -0.00  -0.00  -0.00    -0.01  -0.00   0.07
   8   6    -0.00   0.00  -0.00    -0.00  -0.00  -0.01     0.11  -0.08   0.14
   9   6     0.00   0.00   0.00    -0.00  -0.00  -0.00     0.04   0.01   0.03
  10   6    -0.00   0.00   0.00     0.00   0.00  -0.00    -0.00   0.00   0.00
  11   6    -0.00  -0.00   0.00     0.00   0.01  -0.01    -0.00  -0.01   0.01
  12   6    -0.00  -0.00   0.00    -0.00   0.00  -0.00     0.01   0.00   0.00
  13   1     0.00  -0.00   0.00    -0.00   0.00  -0.00    -0.00   0.00   0.00
  14   1    -0.00  -0.00  -0.00     0.00   0.00   0.00    -0.01  -0.03  -0.03
  15   1     0.01  -0.00  -0.00    -0.01   0.00   0.00     0.10  -0.02  -0.01
  16   1    -0.01  -0.01  -0.01     0.01   0.01   0.02    -0.09  -0.09  -0.10
  17   1    -0.00  -0.00  -0.00     0.01   0.01   0.01    -0.02  -0.02  -0.02
  18   1    -0.00   0.00   0.00    -0.00  -0.00   0.01     0.06   0.04  -0.23
  19   1     0.00   0.00  -0.00     0.02   0.02   0.02    -0.34  -0.36  -0.33
  20   1     0.00  -0.02   0.00     0.00  -0.01   0.00    -0.05   0.65  -0.18
  21   1    -0.00   0.00   0.00     0.00  -0.00  -0.00    -0.01   0.01   0.01
  22   1    -0.00  -0.00  -0.00     0.01   0.00   0.01    -0.12  -0.05  -0.11
  23   1     0.00  -0.00  -0.00    -0.00   0.00   0.00     0.00  -0.00  -0.00
  24   1     0.00  -0.00   0.00     0.00  -0.00   0.00    -0.00   0.00  -0.00
  25   1    -0.00   0.00  -0.00     0.00  -0.00   0.01    -0.01   0.00  -0.03
  26   1     0.00   0.00  -0.00    -0.01  -0.03   0.01     0.01   0.03  -0.01
  27   1     0.02   0.00   0.00     0.01   0.00   0.00    -0.02  -0.00  -0.00
  28   1    -0.00   0.00  -0.00    -0.00  -0.00   0.00     0.00  -0.00   0.00
  29   7     0.00  -0.00  -0.00    -0.00   0.00  -0.00    -0.00  -0.00  -0.00
  30   6    -0.00   0.00  -0.00     0.00  -0.00   0.00    -0.00   0.00   0.00
  31   7     0.00   0.00   0.00     0.00   0.00  -0.00     0.00   0.00   0.00
  32   6     0.02   0.03   0.04    -0.00  -0.01  -0.01    -0.00   0.00  -0.00
  33   6    -0.00   0.18   0.01     0.00  -0.02  -0.00    -0.00   0.00   0.00
  34   6    -0.02   0.06  -0.01     0.01  -0.01  -0.00    -0.00   0.00  -0.00
  35   6    -0.01   0.06   0.09    -0.01  -0.01  -0.03    -0.00   0.00  -0.00
  36   6    -0.03   0.04  -0.01     0.01  -0.01   0.00    -0.00   0.00  -0.00
  37   6     0.00   0.00   0.00     0.00  -0.02   0.00     0.00  -0.00  -0.00
  38   6     0.01  -0.04  -0.01     0.06  -0.28  -0.05     0.00  -0.01  -0.00
  39   6     0.00  -0.00   0.00     0.00  -0.02   0.00     0.00  -0.00   0.00
  40   1    -0.09  -0.06  -0.14     0.01   0.01   0.02     0.00   0.00   0.00
  41   1     0.02  -0.04  -0.00    -0.00   0.01   0.00     0.00  -0.00  -0.00
  42   1    -0.43  -0.13  -0.02     0.04   0.01   0.00    -0.00  -0.00  -0.00
  43   1     0.44  -0.52  -0.02    -0.05   0.06   0.00     0.00  -0.00  -0.00
  44   1     0.11  -0.14  -0.00    -0.02   0.03   0.00     0.00  -0.00  -0.00
  45   1    -0.02  -0.04   0.06    -0.00  -0.00   0.00    -0.00  -0.00   0.00
  46   1     0.02  -0.02   0.01     0.02  -0.03  -0.00     0.01  -0.02  -0.00
  47   1    -0.01  -0.18  -0.35     0.00   0.05   0.10    -0.00   0.01   0.01
  48   1    -0.02  -0.01  -0.01     0.01   0.00   0.00    -0.00  -0.00  -0.00
  49   1     0.14  -0.12   0.04    -0.04   0.03  -0.01     0.01  -0.01   0.00
  50   1     0.00  -0.01   0.00    -0.00   0.06  -0.01    -0.00   0.00  -0.00
  51   1    -0.01   0.00  -0.01    -0.01   0.00  -0.01     0.00  -0.00   0.00
  52   1    -0.02   0.03   0.06    -0.15   0.20   0.37    -0.01   0.01   0.02
  53   1    -0.01   0.12  -0.03    -0.07   0.80  -0.20    -0.00   0.03  -0.01
  54   1    -0.00   0.00  -0.00    -0.01   0.06  -0.01    -0.00   0.00  -0.00
  55   1    -0.00  -0.00   0.00     0.01   0.00  -0.00    -0.00  -0.00  -0.00
  56   6     0.00  -0.00   0.00     0.00  -0.00   0.00     0.00   0.00   0.00
  57   8    -0.00   0.00  -0.00    -0.00   0.00  -0.00    -0.00  -0.00  -0.00
  58   6    -0.00   0.00  -0.00     0.00  -0.00   0.00     0.00  -0.00   0.00
  59   8     0.00  -0.00   0.00    -0.00   0.00  -0.00    -0.00   0.00  -0.00
                    169                    170                    171
                        a                      a                      a 
 Frequencies --  2993.6981              2998.4278              2998.9065
 Red. masses --     1.5570                 1.6366                 1.5321
 Frc consts  --     0.0000                 0.0000                 0.0000
 IR Inten    --    56.2563                51.0646                41.8349
 Raman Activ --     0.0000                 0.0000                 0.0000
 Depolar     --     0.0000                 0.0000                 0.0000
 Atom AN      X      Y      Z        X      Y      Z        X      Y      Z
   1  28     0.00  -0.00   0.00     0.00   0.00  -0.00    -0.00   0.00   0.00
   2   7     0.00   0.00  -0.00     0.00   0.00   0.00     0.00  -0.00  -0.00
   3   6     0.00   0.00  -0.00    -0.00  -0.00   0.00    -0.00   0.00   0.00
   4   7    -0.00   0.00   0.00     0.00  -0.00   0.00     0.00  -0.00  -0.00
   5   6    -0.00  -0.00  -0.00    -0.00   0.00   0.00     0.00  -0.00   0.00
   6   6     0.00  -0.00  -0.00    -0.00   0.00   0.00     0.00   0.00   0.00
   7   6     0.00   0.00  -0.00    -0.00  -0.00   0.00     0.00   0.00   0.00
   8   6    -0.00   0.00  -0.00     0.00  -0.00   0.00     0.00  -0.00   0.00
   9   6    -0.00   0.00  -0.00     0.00   0.00   0.00     0.00   0.00   0.00
  10   6     0.00  -0.00  -0.00    -0.00   0.01   0.00     0.00  -0.00   0.00
  11   6    -0.00  -0.00  -0.00     0.08   0.22  -0.01    -0.01  -0.02   0.00
  12   6     0.01   0.00  -0.00     0.04   0.01  -0.00    -0.00  -0.00   0.00
  13   1     0.00  -0.00   0.00     0.00  -0.01   0.00    -0.00   0.00  -0.00
  14   1     0.00   0.00   0.00    -0.00  -0.00  -0.00    -0.00  -0.00  -0.00
  15   1    -0.00   0.00   0.00     0.02  -0.00  -0.00     0.00  -0.00  -0.00
  16   1     0.00   0.00   0.00    -0.00  -0.00  -0.00    -0.00  -0.00  -0.00
  17   1    -0.00  -0.00  -0.00     0.00   0.00   0.00    -0.00  -0.00  -0.00
  18   1    -0.00  -0.00   0.01     0.00   0.00  -0.02     0.00   0.00  -0.00
  19   1     0.01   0.01   0.01    -0.01  -0.01  -0.00    -0.00  -0.00  -0.00
  20   1     0.00  -0.02   0.01    -0.00   0.02  -0.01    -0.00   0.00  -0.00
  21   1     0.00  -0.00  -0.00     0.00  -0.00  -0.00    -0.00   0.00   0.00
  22   1     0.00   0.00   0.00    -0.00  -0.00  -0.00    -0.00  -0.00  -0.00
  23   1    -0.00   0.00   0.00     0.02  -0.01  -0.02    -0.00   0.00   0.00
  24   1     0.00  -0.00   0.00     0.00  -0.01   0.02    -0.00   0.00  -0.00
  25   1     0.00  -0.00   0.01    -0.03   0.06  -0.21     0.00  -0.01   0.02
  26   1     0.00   0.01  -0.00    -0.27  -0.84   0.26     0.03   0.09  -0.03
  27   1    -0.03  -0.00  -0.00    -0.16  -0.01  -0.02     0.02   0.00   0.00
  28   1     0.00  -0.00   0.01     0.01  -0.00   0.03    -0.00   0.00  -0.00
  29   7     0.00  -0.00   0.00    -0.00  -0.00   0.00     0.00  -0.00  -0.00
  30   6    -0.00   0.00  -0.00     0.00   0.00   0.00     0.00  -0.00   0.00
  31   7     0.00  -0.00   0.00    -0.00  -0.00  -0.00    -0.00  -0.00  -0.00
  32   6    -0.00   0.01   0.00     0.00   0.00   0.00     0.00   0.00   0.00
  33   6    -0.01   0.04   0.00    -0.00   0.00   0.00     0.00   0.00   0.00
  34   6    -0.00   0.05  -0.04    -0.00   0.00  -0.00     0.00   0.00  -0.00
  35   6    -0.11   0.07  -0.15    -0.00   0.00  -0.00    -0.00  -0.00  -0.01
  36   6    -0.05   0.04  -0.02    -0.00   0.00  -0.00    -0.00   0.00  -0.00
  37   6    -0.00   0.00  -0.00     0.00   0.00   0.00     0.01  -0.00   0.01
  38   6    -0.00   0.02  -0.00    -0.01   0.01   0.02    -0.06  -0.01   0.21
  39   6    -0.00   0.00  -0.00    -0.00   0.00   0.00    -0.02  -0.01   0.01
  40   1     0.00   0.00   0.00    -0.00  -0.00  -0.00    -0.00  -0.00  -0.01
  41   1     0.01  -0.03  -0.01     0.00  -0.00  -0.00     0.00  -0.00   0.00
  42   1    -0.07  -0.02  -0.00    -0.00  -0.00  -0.00    -0.01  -0.00  -0.00
  43   1     0.10  -0.13  -0.01     0.00  -0.00  -0.00     0.00  -0.00  -0.00
  44   1     0.04  -0.05  -0.01     0.00  -0.00  -0.00    -0.01   0.01  -0.00
  45   1    -0.05  -0.12   0.15    -0.00  -0.00   0.00    -0.00  -0.01   0.01
  46   1     0.41  -0.52  -0.01     0.00  -0.00  -0.00     0.01  -0.01  -0.00
  47   1     0.00   0.30   0.53    -0.00   0.00   0.00     0.00   0.01   0.02
  48   1     0.01   0.02   0.00    -0.00  -0.00  -0.00    -0.00  -0.00  -0.00
  49   1     0.18  -0.16   0.06     0.00  -0.00   0.00     0.00  -0.00   0.00
  50   1     0.00  -0.01   0.00     0.00  -0.00   0.00     0.00   0.00   0.00
  51   1     0.00  -0.00   0.00    -0.00   0.00  -0.00    -0.03   0.01  -0.03
  52   1     0.00   0.00  -0.00     0.03  -0.05  -0.08     0.28  -0.44  -0.66
  53   1     0.01  -0.07   0.02    -0.00   0.03  -0.00    -0.05   0.46  -0.08
  54   1     0.00  -0.01   0.00    -0.00  -0.00  -0.00    -0.00  -0.00   0.00
  55   1     0.00   0.00  -0.00     0.00   0.00  -0.00     0.06   0.03  -0.01
  56   6    -0.00   0.00  -0.00    -0.00  -0.00  -0.00    -0.00   0.00  -0.00
  57   8     0.00   0.00   0.00     0.00   0.00   0.00     0.00  -0.00   0.00
  58   6    -0.00   0.00  -0.00     0.00  -0.00   0.00     0.00  -0.00   0.00
  59   8     0.00  -0.00   0.00    -0.00   0.00  -0.00    -0.00   0.00  -0.00
