      -----------------------------------------------------------      
     |                   =====================                   |     
     |                           x T B                           |     
     |                   =====================                   |     
     |                         S. Grimme                         |     
     |          Mulliken Center for Theoretical Chemistry        |     
     |                    University of Bonn                     |     
      -----------------------------------------------------------      

   * xtb version 6.5.0 (97a52f5) compiled by 'conda@d2599ee0d4f4' on 2022-05-15

   xtb is free software: you can redistribute it and/or modify it under
   the terms of the GNU Lesser General Public License as published by
   the Free Software Foundation, either version 3 of the License, or
   (at your option) any later version.
   
   xtb is distributed in the hope that it will be useful,
   but WITHOUT ANY WARRANTY; without even the implied warranty of
   MERCHANTABILITY or FITNESS FOR A PARTICULAR PURPOSE.  See the
   GNU Lesser General Public License for more details.
   
   Cite this work as:
   * C. Bannwarth, E. Caldeweyher, S. Ehlert, A. Hansen, P. Pracht,
     J. Seibert, S. Spicher, S. Grimme, WIREs Comput. Mol. Sci., 2020, 11,
     e01493. DOI: 10.1002/wcms.1493
   
   for GFN2-xTB:
   * C. Bannwarth, S. Ehlert and S. Grimme., J. Chem. Theory Comput., 2019,
     15, 1652-1671. DOI: 10.1021/acs.jctc.8b01176
   for GFN1-xTB:
   * S. Grimme, C. Bannwarth, P. Shushkov, J. Chem. Theory Comput., 2017,
     13, 1989-2009. DOI: 10.1021/acs.jctc.7b00118
   for GFN0-xTB:
   * P. Pracht, E. Caldeweyher, S. Ehlert, S. Grimme, ChemRxiv, 2019, preprint.
     DOI: 10.26434/chemrxiv.8326202.v1
   for GFN-FF:
   * S. Spicher and S. Grimme, Angew. Chem. Int. Ed., 2020, 59, 15665-15673.
     DOI: 10.1002/anie.202004239
   
   for ALPB and GBSA implicit solvation:
   * S. Ehlert, M. Stahn, S. Spicher, S. Grimme, J. Chem. Theory Comput.,
     2021, 17, 4250-4261. DOI: 10.1021/acs.jctc.1c00471
   
   for DFT-D4:
   * E. Caldeweyher, C. Bannwarth and S. Grimme, J. Chem. Phys., 2017,
     147, 034112. DOI: 10.1063/1.4993215
   * E. Caldeweyher, S. Ehlert, A. Hansen, H. Neugebauer, S. Spicher,
     C. Bannwarth and S. Grimme, J. Chem. Phys., 2019, 150, 154122.
     DOI: 10.1063/1.5090222
   * E. Caldeweyher, J.-M. Mewes, S. Ehlert and S. Grimme, Phys. Chem. Chem. Phys.
     2020, 22, 8499-8512. DOI: 10.1039/D0CP00502A
   
   for sTDA-xTB:
   * S. Grimme and C. Bannwarth, J. Chem. Phys., 2016, 145, 054103.
     DOI: 10.1063/1.4959605
   
   in the mass-spec context:
   * V. Asgeirsson, C. Bauer and S. Grimme, Chem. Sci., 2017, 8, 4879.
     DOI: 10.1039/c7sc00601b
   * J. Koopman and S. Grimme, ACS Omega 2019, 4, 12, 15120-15133.
     DOI: 10.1021/acsomega.9b02011
   
   for metadynamics refer to:
   * S. Grimme, J. Chem. Theory Comput., 2019, 155, 2847-2862
     DOI: 10.1021/acs.jctc.9b00143
   
   for SPH calculations refer to:
   * S. Spicher and S. Grimme, J. Chem. Theory Comput., 2021, 17, 1701-1714
     DOI: 10.1021/acs.jctc.0c01306
   
   with help from (in alphabetical order)
   P. Atkinson, C. Bannwarth, F. Bohle, G. Brandenburg, E. Caldeweyher
   M. Checinski, S. Dohm, S. Ehlert, S. Ehrlich, I. Gerasimov, C. Hölzer
   A. Katbashev, J. Koopman, C. Lavigne, S. Lehtola, F. März, M. Müller,
   F. Musil, H. Neugebauer, J. Pisarek, C. Plett, P. Pracht, F. Pultar,
   J. Seibert, P. Shushkov, S. Spicher, M. Stahn, M. Steiner, T. Strunk,
   J. Stückrath, T. Rose, and J. Unsleber
   
 * started run on 2022/05/27 at 18:12:02.447     

           -------------------------------------------------
          |                Calculation Setup                |
           -------------------------------------------------

          program call               : xtb struc.xyz --gfn2 --hess
          hostname                   : fedora
          coordinate file            : struc.xyz
          omp threads                :                     1

   ID    Z sym.   atoms
    1   28 Ni     1
    2    7 N      2, 4, 29, 31
    3    6 C      3, 5-12, 30, 32-39, 56, 58
    4    1 H      13-28, 40-55
    5    8 O      57, 59

molecular fragmentation (1/2 indicates fragments):
11111111111111111111111111111111111111111111111111111111122
# atoms in fragment 1/2:    57     2
 fragment masses (1/2) :      391.18       28.01
CMA distance (Bohr)    :   6.170
constraining FC (au)   :  0.0500

           -------------------------------------------------
          |                 G F N 2 - x T B                 |
           -------------------------------------------------

        Reference                      10.1021/acs.jctc.8b01176
      * Hamiltonian:
        H0-scaling (s, p, d)           1.850000    2.230000    2.230000
        zeta-weighting                 0.500000
      * Dispersion:
        s8                             2.700000
        a1                             0.520000
        a2                             5.000000
        s9                             5.000000
      * Repulsion:
        kExp                           1.500000    1.000000
        rExp                           1.000000
      * Coulomb:
        alpha                          2.000000
        third order                    shell-resolved
        anisotropic                    true
        a3                             3.000000
        a5                             4.000000
        cn-shift                       1.200000
        cn-exp                         4.000000
        max-rad                        5.000000


          ...................................................
          :                      SETUP                      :
          :.................................................:
          :  # basis functions                 146          :
          :  # atomic orbitals                 145          :
          :  # shells                           87          :
          :  # electrons                       154          :
          :  max. iterations                   250          :
          :  Hamiltonian                  GFN2-xTB          :
          :  restarted?                      false          :
          :  GBSA solvation                  false          :
          :  PC potential                    false          :
          :  electronic temp.          300.0000000     K    :
          :  accuracy                    1.0000000          :
          :  -> integral cutoff          0.2500000E+02      :
          :  -> integral neglect         0.1000000E-07      :
          :  -> SCF convergence          0.1000000E-05 Eh   :
          :  -> wf. convergence          0.1000000E-03 e    :
          :  Broyden damping             0.4000000          :
          ...................................................

 iter      E             dE          RMSdq      gap      omega  full diag
   1    -84.6563346 -0.846563E+02  0.465E+00    3.89       0.0  T
   2    -84.8722069 -0.215872E+00  0.264E+00    3.06       1.0  T
   3    -84.8799836 -0.777673E-02  0.128E+00    2.13       1.0  T
   4    -84.9168209 -0.368372E-01  0.693E-01    2.31       1.0  T
   5    -84.9174258 -0.604944E-03  0.235E-01    2.39       1.0  T
   6    -84.9187288 -0.130294E-02  0.161E-01    2.34       1.0  T
   7    -84.9188747 -0.145967E-03  0.823E-02    2.36       1.0  T
   8    -84.9188474  0.273512E-04  0.498E-02    2.35       1.0  T
   9    -84.9189392 -0.918407E-04  0.192E-02    2.36       1.0  T
  10    -84.9189433 -0.411104E-05  0.935E-03    2.36       1.4  T
  11    -84.9189447 -0.135367E-05  0.184E-03    2.36       7.1  T
  12    -84.9189447 -0.429529E-07  0.112E-03    2.36      11.7  T
  13    -84.9189447 -0.332940E-08  0.631E-04    2.36      20.6  T
  14    -84.9189447 -0.903626E-09  0.469E-04    2.36      27.8  T

   *** convergence criteria satisfied after 14 iterations ***

         #    Occupation            Energy/Eh            Energy/eV
      -------------------------------------------------------------
         1        2.0000           -0.7156097             -19.4727
       ...           ...                  ...                  ...
        71        2.0000           -0.3623282              -9.8595
        72        2.0000           -0.3614099              -9.8345
        73        2.0000           -0.3279929              -8.9251
        74        2.0000           -0.3259610              -8.8699
        75        2.0000           -0.3179510              -8.6519
        76        2.0000           -0.3107121              -8.4549
        77        2.0000           -0.3085442              -8.3959 (HOMO)
        78                         -0.2219041              -6.0383 (LUMO)
        79                         -0.2147946              -5.8449
        80                         -0.2014613              -5.4820
        81                         -0.2000865              -5.4446
        82                         -0.1914502              -5.2096
       ...                                ...                  ...
       145                          1.2249891              33.3337
      -------------------------------------------------------------
                  HL-Gap            0.0866401 Eh            2.3576 eV
             Fermi-level           -0.2652242 Eh           -7.2171 eV

 SCC (total)                   0 d,  0 h,  0 min,  0.689 sec
 SCC setup                      ...        0 min,  0.000 sec (  0.037%)
 Dispersion                     ...        0 min,  0.001 sec (  0.096%)
 classical contributions        ...        0 min,  0.000 sec (  0.020%)
 integral evaluation            ...        0 min,  0.088 sec ( 12.762%)
 iterations                     ...        0 min,  0.371 sec ( 53.848%)
 molecular gradient             ...        0 min,  0.228 sec ( 33.166%)
 printout                       ...        0 min,  0.000 sec (  0.069%)

         :::::::::::::::::::::::::::::::::::::::::::::::::::::
         ::                     SUMMARY                     ::
         :::::::::::::::::::::::::::::::::::::::::::::::::::::
         :: total energy             -83.871285977301 Eh    ::
         :: gradient norm              0.000345558556 Eh/a0 ::
         :: HOMO-LUMO gap              2.357596765595 eV    ::
         ::.................................................::
         :: SCC energy               -84.918944738618 Eh    ::
         :: -> isotropic ES            0.078382526478 Eh    ::
         :: -> anisotropic ES          0.017430970387 Eh    ::
         :: -> anisotropic XC          0.038305504174 Eh    ::
         :: -> dispersion             -0.066655440863 Eh    ::
         :: repulsion energy           1.045944490077 Eh    ::
         :: add. restraining           0.000000000000 Eh    ::
         :: total charge              -0.000000000000 e     ::
         :::::::::::::::::::::::::::::::::::::::::::::::::::::

           ------------------------------------------------- 
          |                Numerical Hessian                |
           ------------------------------------------------- 
step length          :   0.00500
SCC accuracy         :   0.30000
Hessian scale factor :   1.00000
frozen atoms in %    :   0.00000    0
RMS gradient         :   0.00033
estimated CPU  time      0.38 min
estimated wall time      2.97 min

writing file <hessian>.

 projected vibrational frequencies (cm⁻¹)
eigval :       -0.00    -0.00    -0.00    -0.00     0.00     0.00
eigval :       10.89    12.01    23.21    25.50    36.95    44.33
eigval :       49.91    53.09    61.99    71.23    80.65    86.71
eigval :       88.81    97.69   108.81   158.51   168.71   169.99
eigval :      186.12   219.94   235.26   237.75   244.04   257.84
eigval :      268.81   288.77   296.44   326.16   347.29   350.66
eigval :      366.64   367.81   374.55   389.11   417.07   427.27
eigval :      429.63   467.85   477.98   488.25   501.28   510.15
eigval :      512.44   521.35   530.07   599.88   619.23   659.42
eigval :      674.25   733.07   734.51   845.77   846.51   861.42
eigval :      861.85   877.10   878.57   897.11   900.86   907.01
eigval :      907.70   928.21   929.64   953.01   953.40   977.65
eigval :      980.14   995.91   996.59  1025.09  1027.16  1050.32
eigval :     1053.90  1088.89  1091.39  1101.37  1102.41  1114.28
eigval :     1116.68  1122.92  1128.64  1142.19  1142.66  1144.65
eigval :     1145.44  1163.28  1169.45  1188.87  1192.57  1200.50
eigval :     1201.32  1215.68  1218.33  1233.47  1234.04  1243.08
eigval :     1244.40  1252.19  1257.55  1268.55  1271.91  1302.47
eigval :     1305.81  1317.49  1318.25  1328.23  1329.43  1333.69
eigval :     1337.87  1340.32  1341.34  1344.12  1344.33  1353.83
eigval :     1354.23  1360.56  1361.23  1418.77  1426.90  1442.52
eigval :     1445.14  1472.28  1475.15  1475.45  1476.91  1477.85
eigval :     1477.98  1479.66  1482.73  1489.64  1490.45  1495.02
eigval :     1496.07  1499.36  1499.97  1648.93  1657.26  1975.53
eigval :     2003.25  2863.96  2874.07  2886.53  2888.42  2896.23
eigval :     2897.74  2920.79  2921.60  2930.42  2944.24  2959.09
eigval :     2959.32  2960.97  2965.06  2967.87  2969.65  2973.13
eigval :     2973.44  2974.91  2975.49  2977.12  2979.40  2983.98
eigval :     2984.48  2985.37  2985.51  2987.21  2989.99  2991.12
eigval :     2993.70  2998.43  2998.91
           -------------------------------------------------
          |                Property Printout                |
           -------------------------------------------------

    * Orbital Energies and Occupations

         #    Occupation            Energy/Eh            Energy/eV
      -------------------------------------------------------------
         1        2.0000           -0.7156048             -19.4726
       ...           ...                  ...                  ...
        65        2.0000           -0.4224024             -11.4942
        66        2.0000           -0.4215770             -11.4717
        67        2.0000           -0.4193319             -11.4106
        68        2.0000           -0.4178342             -11.3698
        69        2.0000           -0.3841334             -10.4528
        70        2.0000           -0.3815141             -10.3815
        71        2.0000           -0.3623285              -9.8595
        72        2.0000           -0.3614098              -9.8345
        73        2.0000           -0.3279955              -8.9252
        74        2.0000           -0.3259636              -8.8699
        75        2.0000           -0.3179541              -8.6520
        76        2.0000           -0.3107149              -8.4550
        77        2.0000           -0.3085452              -8.3959 (HOMO)
        78                         -0.2218984              -6.0382 (LUMO)
        79                         -0.2147888              -5.8447
        80                         -0.2014561              -5.4819
        81                         -0.2000819              -5.4445
        82                         -0.1914495              -5.2096
        83                         -0.1896873              -5.1617
        84                         -0.0124559              -0.3389
        85                         -0.0116548              -0.3171
        86                          0.0522091               1.4207
        87                          0.0539967               1.4693
        88                          0.0668040               1.8178
       ...                                ...                  ...
       145                          1.2249929              33.3338
      -------------------------------------------------------------
                  HL-Gap            0.0866469 Eh            2.3578 eV
             Fermi-level           -0.2652218 Eh           -7.2171 eV

     #   Z          covCN         q      C6AA      α(0)
     1  28 Ni       2.906    -0.891   202.937    29.394
     2   7 N        2.410    -0.106    23.428     7.187
     3   6 C        2.850     0.151    24.715     8.148
     4   7 N        2.739    -0.097    23.128     7.143
     5   6 C        3.748     0.000    20.644     6.481
     6   6 C        3.801    -0.061    21.674     6.628
     7   6 C        3.802    -0.058    21.611     6.619
     8   6 C        3.802    -0.052    21.500     6.602
     9   6 C        3.811    -0.072    21.871     6.657
    10   6 C        3.753     0.010    20.473     6.452
    11   6 C        3.806    -0.063    21.710     6.633
    12   6 C        3.772     0.019    20.278     6.417
    13   1 H        0.924     0.038     2.473     2.459
    14   1 H        0.924     0.048     2.339     2.392
    15   1 H        0.924     0.033     2.540     2.493
    16   1 H        0.924     0.038     2.476     2.461
    17   1 H        0.924     0.033     2.548     2.496
    18   1 H        0.924     0.032     2.562     2.503
    19   1 H        0.924     0.038     2.482     2.463
    20   1 H        0.924     0.040     2.455     2.450
    21   1 H        0.923     0.116     1.645     2.006
    22   1 H        0.924     0.046     2.377     2.411
    23   1 H        0.924     0.034     2.533     2.489
    24   1 H        0.923     0.032     2.558     2.501
    25   1 H        0.924     0.038     2.476     2.461
    26   1 H        0.925     0.033     2.547     2.496
    27   1 H        0.924     0.066     2.127     2.281
    28   1 H        0.923     0.033     2.551     2.498
    29   7 N        2.394    -0.114    23.621     7.217
    30   6 C        2.847     0.154    24.661     8.139
    31   7 N        2.739    -0.098    23.156     7.147
    32   6 C        3.746     0.001    20.638     6.480
    33   6 C        3.801    -0.061    21.673     6.628
    34   6 C        3.802    -0.058    21.617     6.619
    35   6 C        3.803    -0.052    21.508     6.603
    36   6 C        3.811    -0.071    21.841     6.652
    37   6 C        3.754     0.011    20.447     6.448
    38   6 C        3.806    -0.066    21.756     6.640
    39   6 C        3.767     0.023    20.221     6.409
    40   1 H        0.924     0.039     2.465     2.455
    41   1 H        0.924     0.047     2.364     2.404
    42   1 H        0.924     0.034     2.535     2.490
    43   1 H        0.924     0.039     2.465     2.455
    44   1 H        0.924     0.033     2.551     2.498
    45   1 H        0.924     0.032     2.555     2.500
    46   1 H        0.924     0.042     2.425     2.435
    47   1 H        0.924     0.040     2.444     2.445
    48   1 H        0.923     0.118     1.626     1.994
    49   1 H        0.924     0.043     2.404     2.425
    50   1 H        0.923     0.029     2.607     2.525
    51   1 H        0.924     0.034     2.537     2.491
    52   1 H        0.925     0.033     2.542     2.493
    53   1 H        0.924     0.047     2.361     2.403
    54   1 H        0.923     0.024     2.675     2.558
    55   1 H        0.924     0.066     2.126     2.280
    56   6 C        1.739     0.274    25.007     8.090
    57   8 O        0.856    -0.194    17.965     5.683
    58   6 C        1.740     0.272    25.051     8.097
    59   8 O        0.856    -0.199    18.046     5.695

 Mol. C6AA /au·bohr⁶  :      34079.224778
 Mol. C8AA /au·bohr⁸  :     865279.092041
 Mol. α(0) /au        :        284.614663


Wiberg/Mayer (AO) data.
largest (>0.10) Wiberg bond orders for each atom

 ---------------------------------------------------------------------------
     #   Z sym  total        # sym  WBO       # sym  WBO       # sym  WBO
 ---------------------------------------------------------------------------
     1  28 Ni   3.976 --    58 C    1.181    56 C    1.169     2 N    0.454
                            29 N    0.443    59 O    0.216    57 O    0.211
     2   7 N    3.432 --     3 C    1.627    12 C    1.005     1 Ni   0.454
                             4 N    0.161
     3   6 C    3.967 --     2 N    1.627     4 N    1.218     9 C    0.998
     4   7 N    3.460 --     3 C    1.218     5 C    0.994    10 C    0.987
                             2 N    0.161
     5   6 C    3.977 --     6 C    0.994     4 N    0.994    13 H    0.973
                            14 H    0.964
     6   6 C    3.997 --     7 C    1.009     5 C    0.994    15 H    0.976
                            16 H    0.976
     7   6 C    3.997 --     6 C    1.009     8 C    1.009    18 H    0.976
                            17 H    0.976
     8   6 C    3.996 --     7 C    1.009     9 C    0.993    19 H    0.976
                            20 H    0.976
     9   6 C    3.991 --     3 C    0.998     8 C    0.993    22 H    0.958
                            21 H    0.909
    10   6 C    3.980 --    11 C    1.006     4 N    0.987    23 H    0.969
                            24 H    0.968
    11   6 C    3.995 --    10 C    1.006    12 C    0.996    25 H    0.977
                            26 H    0.976
    12   6 C    3.989 --     2 N    1.005    11 C    0.996    28 H    0.960
                            27 H    0.956
    13   1 H    0.998 --     5 C    0.973
    14   1 H    0.997 --     5 C    0.964
    15   1 H    0.998 --     6 C    0.976
    16   1 H    0.999 --     6 C    0.976
    17   1 H    0.999 --     7 C    0.976
    18   1 H    0.999 --     7 C    0.976
    19   1 H    0.999 --     8 C    0.976
    20   1 H    0.998 --     8 C    0.976
    21   1 H    0.986 --     9 C    0.909
    22   1 H    0.998 --     9 C    0.958
    23   1 H    0.999 --    10 C    0.969
    24   1 H    0.999 --    10 C    0.968
    25   1 H    0.999 --    11 C    0.977
    26   1 H    0.998 --    11 C    0.976
    27   1 H    0.995 --    12 C    0.956
    28   1 H    0.998 --    12 C    0.960
    29   7 N    3.422 --    30 C    1.628    39 C    1.005     1 Ni   0.443
                            31 N    0.160
    30   6 C    3.966 --    29 N    1.628    31 N    1.217    36 C    0.997
    31   7 N    3.459 --    30 C    1.217    32 C    0.993    37 C    0.989
                            29 N    0.160
    32   6 C    3.976 --    33 C    0.995    31 N    0.993    40 H    0.973
                            41 H    0.963
    33   6 C    3.996 --    34 C    1.009    32 C    0.995    42 H    0.977
                            43 H    0.976
    34   6 C    3.997 --    33 C    1.009    35 C    1.009    45 H    0.976
                            44 H    0.976
    35   6 C    3.996 --    34 C    1.009    36 C    0.991    46 H    0.976
                            47 H    0.975
    36   6 C    3.991 --    30 C    0.997    35 C    0.991    49 H    0.962
                            48 H    0.905
    37   6 C    3.980 --    38 C    1.005    31 N    0.989    51 H    0.968
                            50 H    0.967
    38   6 C    3.995 --    37 C    1.005    39 C    0.998    53 H    0.976
                            52 H    0.976
    39   6 C    3.990 --    29 N    1.005    38 C    0.998    54 H    0.961
                            55 H    0.954
    40   1 H    0.998 --    32 C    0.973
    41   1 H    0.998 --    32 C    0.963
    42   1 H    0.999 --    33 C    0.977
    43   1 H    0.998 --    33 C    0.976
    44   1 H    0.999 --    34 C    0.976
    45   1 H    0.999 --    34 C    0.976
    46   1 H    0.998 --    35 C    0.976
    47   1 H    0.998 --    35 C    0.975
    48   1 H    0.986 --    36 C    0.905
    49   1 H    0.998 --    36 C    0.962
    50   1 H    0.999 --    37 C    0.967
    51   1 H    0.998 --    37 C    0.968
    52   1 H    0.999 --    38 C    0.976
    53   1 H    0.998 --    38 C    0.976
    54   1 H    0.999 --    39 C    0.961
    55   1 H    0.995 --    39 C    0.954
    56   6 C    3.498 --    57 O    2.217     1 Ni   1.169
    57   8 O    2.489 --    56 C    2.217     1 Ni   0.211
    58   6 C    3.504 --    59 O    2.206     1 Ni   1.181
    59   8 O    2.484 --    58 C    2.206     1 Ni   0.216
 ---------------------------------------------------------------------------

Topologies differ in total number of bonds
Writing topology from bond orders to xtbtopo.mol

molecular dipole:
                 x           y           z       tot (Debye)
 q only:       -0.013       2.046       1.182
   full:       -0.031       2.625       1.445       7.617
molecular quadrupole (traceless):
                xx          xy          yy          xz          yz          zz
 q only:       30.818       0.031     -15.102      -2.103      -0.405     -15.716
  q+dip:       34.007      -2.405     -16.835       2.719      -1.168     -17.172
   full:       34.426      -1.315     -16.388       0.908      -0.202     -18.038

           -------------------------------------------------
          |               Frequency Printout                |
           -------------------------------------------------
 projected vibrational frequencies (cm⁻¹)
eigval :       -0.00    -0.00    -0.00    -0.00     0.00     0.00
eigval :       10.89    12.01    23.21    25.50    36.95    44.33
eigval :       49.91    53.09    61.99    71.23    80.65    86.71
eigval :       88.81    97.69   108.81   158.51   168.71   169.99
eigval :      186.12   219.94   235.26   237.75   244.04   257.84
eigval :      268.81   288.77   296.44   326.16   347.29   350.66
eigval :      366.64   367.81   374.55   389.11   417.07   427.27
eigval :      429.63   467.85   477.98   488.25   501.28   510.15
eigval :      512.44   521.35   530.07   599.88   619.23   659.42
eigval :      674.25   733.07   734.51   845.77   846.51   861.42
eigval :      861.85   877.10   878.57   897.11   900.86   907.01
eigval :      907.70   928.21   929.64   953.01   953.40   977.65
eigval :      980.14   995.91   996.59  1025.09  1027.16  1050.32
eigval :     1053.90  1088.89  1091.39  1101.37  1102.41  1114.28
eigval :     1116.68  1122.92  1128.64  1142.19  1142.66  1144.65
eigval :     1145.44  1163.28  1169.45  1188.87  1192.57  1200.50
eigval :     1201.32  1215.68  1218.33  1233.47  1234.04  1243.08
eigval :     1244.40  1252.19  1257.55  1268.55  1271.91  1302.47
eigval :     1305.81  1317.49  1318.25  1328.23  1329.43  1333.69
eigval :     1337.87  1340.32  1341.34  1344.12  1344.33  1353.83
eigval :     1354.23  1360.56  1361.23  1418.77  1426.90  1442.52
eigval :     1445.14  1472.28  1475.15  1475.45  1476.91  1477.85
eigval :     1477.98  1479.66  1482.73  1489.64  1490.45  1495.02
eigval :     1496.07  1499.36  1499.97  1648.93  1657.26  1975.53
eigval :     2003.25  2863.96  2874.07  2886.53  2888.42  2896.23
eigval :     2897.74  2920.79  2921.60  2930.42  2944.24  2959.09
eigval :     2959.32  2960.97  2965.06  2967.87  2969.65  2973.13
eigval :     2973.44  2974.91  2975.49  2977.12  2979.40  2983.98
eigval :     2984.48  2985.37  2985.51  2987.21  2989.99  2991.12
eigval :     2993.70  2998.43  2998.91
 reduced masses (amu)
   1: 19.05   2: 12.43   3: 16.58   4: 17.31   5: 12.42   6: 14.09   7: 13.44   8: 13.33
   9: 12.16  10: 13.10  11: 13.25  12: 14.05  13: 13.18  14: 15.95  15: 10.93  16: 20.38
  17: 10.36  18: 12.76  19: 10.28  20: 14.82  21: 10.57  22: 22.62  23: 18.33  24: 25.01
  25: 18.81  26: 14.25  27:  8.19  28: 10.90  29:  9.81  30: 12.64  31: 13.45  32:  9.40
  33:  8.27  34: 19.82  35:  9.68  36: 10.03  37:  8.72  38:  9.14  39:  8.74  40:  9.45
  41:  8.33  42: 16.48  43: 14.19  44:  8.46  45: 12.81  46:  9.98  47: 10.14  48:  7.82
  49:  8.58  50:  7.51  51: 24.44  52:  9.59  53: 10.63  54:  8.07  55:  8.79  56:  9.94
  57:  9.94  58:  6.66  59:  6.50  60:  5.68  61:  6.05  62:  6.74  63:  6.84  64:  4.56
  65:  5.22  66:  6.53  67:  6.08  68:  6.17  69:  6.13  70:  8.35  71:  8.43  72:  7.29
  73:  7.25  74:  7.61  75:  7.53  76:  7.27  77:  7.55  78:  6.46  79:  6.46  80:  6.18
  81:  6.82  82:  6.90  83:  6.36  84:  6.22  85:  6.46  86:  7.27  87:  7.48  88:  7.27
  89:  7.40  90:  7.90  91:  7.67  92:  4.03  93:  3.87  94:  4.33  95:  3.71  96:  4.12
  97:  4.33  98:  5.02  99:  4.57 100:  4.41 101:  4.15 102:  3.04 103:  2.85 104:  3.80
 105:  3.83 106:  5.65 107:  5.46 108:  4.10 109:  4.17 110:  4.88 111:  4.83 112:  4.79
 113:  4.67 114:  4.58 115:  4.69 116:  5.72 117:  5.34 118:  4.62 119:  4.59 120:  4.95
 121:  4.90 122:  4.95 123:  5.00 124:  7.63 125:  8.03 126:  3.75 127:  3.73 128:  1.99
 129:  1.98 130:  2.04 131:  1.96 132:  2.25 133:  1.95 134:  2.03 135:  2.11 136:  1.95
 137:  2.14 138:  2.18 139:  2.09 140:  1.97 141:  1.94 142: 12.25 143: 12.30 144: 13.64
 145: 13.63 146:  1.83 147:  1.88 148:  1.76 149:  1.77 150:  1.77 151:  1.77 152:  1.55
 153:  1.79 154:  1.59 155:  1.86 156:  1.89 157:  1.89 158:  1.66 159:  1.70 160:  1.79
 161:  1.79 162:  1.75 163:  1.83 164:  1.73 165:  1.67 166:  1.84 167:  1.73 168:  1.78
 169:  1.68 170:  1.60 171:  1.67 172:  1.62 173:  1.95 174:  1.55 175:  1.56 176:  1.64
 177:  1.53
 IR intensities (km·mol⁻¹)
   1:  0.81   2:  0.89   3:  0.24   4:  0.12   5:  0.33   6:  0.20   7:  0.86   8:  0.75
   9:  0.07  10:  0.23  11:  0.38  12:  0.15  13:  0.21  14:  0.12  15:  0.17  16:  1.56
  17:  0.58  18:  0.36  19:  0.94  20:  0.93  21:  0.12  22:  0.66  23:  0.15  24:  1.52
  25:  0.83  26:  2.48  27:  0.64  28:  0.17  29:  3.66  30:  4.48  31:  1.11  32:  1.16
  33:  0.20  34:  1.81  35:  5.19  36:  0.49  37:  4.33  38:  0.61  39:  5.82  40:  1.58
  41:  6.34  42:  5.00  43: 15.30  44:  1.56  45:  0.65  46:  5.09  47:  1.32  48:  0.09
  49:  3.16  50:  3.78  51:  7.89  52:  6.28  53: 10.17  54:  6.35  55:  4.75  56:  0.08
  57:  1.53  58:  0.69  59:  1.07  60:  8.90  61:  5.62  62:  4.45  63:  4.24  64:  4.66
  65:  0.35  66:  1.06  67:  0.17  68:  5.81  69:  2.23  70:  1.05  71:  1.09  72: 12.10
  73:  7.25  74:  1.34  75:  8.26  76: 13.46  77: 19.51  78:  6.64  79:  7.74  80:  6.23
  81:  1.18  82:  4.77  83: 12.29  84:  3.16  85:  3.58  86: 16.23  87: 12.19  88:  2.64
  89:  2.14  90:  0.60  91:  0.21  92:  8.65  93:  3.59  94: 16.27  95:  9.39  96:  9.67
  97:  3.70  98:  9.56  99:  3.63 100: 15.44 101:  5.50 102:  7.19 103:  2.16 104:  2.37
 105:  3.07 106: 19.01 107: 10.78 108: 17.57 109: 46.07 110: 16.50 111: 10.11 112:  3.97
 113:  5.08 114: 20.13 115: 13.44 116: 27.80 117: 21.67 118: 13.47 119: 22.83 120:  0.48
 121:  0.25 122:  7.42 123:  8.50 124: 84.77 125: 69.79 126: 31.07 127: 36.07 128:  5.80
 129:  5.47 130:  0.88 131:  0.44 132:  2.99 133:  1.17 134:  1.34 135:  1.89 136:  4.50
 137:  4.89 138:  1.68 139:  1.94 140:  0.32 141:  0.60 142:****** 143:117.15 144:******
 145:655.95 146: 33.15 147: 31.30 148: 19.29 149: 36.15 150:  1.82 151: 36.17 152: 63.80
 153: 20.79 154: 61.10 155: 15.65 156: 14.07 157: 13.78 158: 23.43 159:  8.36 160:  1.87
 161:  8.08 162: 34.39 163:  7.28 164:  6.36 165: 48.19 166: 38.30 167: 15.63 168:171.45
 169: 39.45 170:130.72 171: 18.20 172: 63.48 173: 53.63 174: 52.10 175: 56.26 176: 51.06
 177: 41.83
 Raman intensities (amu)
   1:  0.00   2:  0.00   3:  0.00   4:  0.00   5:  0.00   6:  0.00   7:  0.00   8:  0.00
   9:  0.00  10:  0.00  11:  0.00  12:  0.00  13:  0.00  14:  0.00  15:  0.00  16:  0.00
  17:  0.00  18:  0.00  19:  0.00  20:  0.00  21:  0.00  22:  0.00  23:  0.00  24:  0.00
  25:  0.00  26:  0.00  27:  0.00  28:  0.00  29:  0.00  30:  0.00  31:  0.00  32:  0.00
  33:  0.00  34:  0.00  35:  0.00  36:  0.00  37:  0.00  38:  0.00  39:  0.00  40:  0.00
  41:  0.00  42:  0.00  43:  0.00  44:  0.00  45:  0.00  46:  0.00  47:  0.00  48:  0.00
  49:  0.00  50:  0.00  51:  0.00  52:  0.00  53:  0.00  54:  0.00  55:  0.00  56:  0.00
  57:  0.00  58:  0.00  59:  0.00  60:  0.00  61:  0.00  62:  0.00  63:  0.00  64:  0.00
  65:  0.00  66:  0.00  67:  0.00  68:  0.00  69:  0.00  70:  0.00  71:  0.00  72:  0.00
  73:  0.00  74:  0.00  75:  0.00  76:  0.00  77:  0.00  78:  0.00  79:  0.00  80:  0.00
  81:  0.00  82:  0.00  83:  0.00  84:  0.00  85:  0.00  86:  0.00  87:  0.00  88:  0.00
  89:  0.00  90:  0.00  91:  0.00  92:  0.00  93:  0.00  94:  0.00  95:  0.00  96:  0.00
  97:  0.00  98:  0.00  99:  0.00 100:  0.00 101:  0.00 102:  0.00 103:  0.00 104:  0.00
 105:  0.00 106:  0.00 107:  0.00 108:  0.00 109:  0.00 110:  0.00 111:  0.00 112:  0.00
 113:  0.00 114:  0.00 115:  0.00 116:  0.00 117:  0.00 118:  0.00 119:  0.00 120:  0.00
 121:  0.00 122:  0.00 123:  0.00 124:  0.00 125:  0.00 126:  0.00 127:  0.00 128:  0.00
 129:  0.00 130:  0.00 131:  0.00 132:  0.00 133:  0.00 134:  0.00 135:  0.00 136:  0.00
 137:  0.00 138:  0.00 139:  0.00 140:  0.00 141:  0.00 142:  0.00 143:  0.00 144:  0.00
 145:  0.00 146:  0.00 147:  0.00 148:  0.00 149:  0.00 150:  0.00 151:  0.00 152:  0.00
 153:  0.00 154:  0.00 155:  0.00 156:  0.00 157:  0.00 158:  0.00 159:  0.00 160:  0.00
 161:  0.00 162:  0.00 163:  0.00 164:  0.00 165:  0.00 166:  0.00 167:  0.00 168:  0.00
 169:  0.00 170:  0.00 171:  0.00 172:  0.00 173:  0.00 174:  0.00 175:  0.00 176:  0.00
 177:  0.00
 output can be read by thermo (or use thermo option).
 writing <g98.out> molden fake output.
 recommended (thermochemical) frequency scaling factor: 1.0
           -------------------------------------------------
          |             Thermodynamic Functions             |
Molecule has no symmetry elements
It seems to be the C1 point group
           -------------------------------------------------

c1  symmetry found (for desy threshold:  0.10E+00) used in thermo

          ...................................................
          :                      SETUP                      :
          :.................................................:
          :  # frequencies                         171      :
          :  # imaginary freq.                       0      :
          :  linear?                             false      :
          :  only rotor calc.                    false      :
          :  symmetry                               c1      :
          :  rotational number                       1      :
          :  scaling factor                  1.0000000      :
          :  rotor cutoff                   50.0000000 cm⁻¹ :
          :  imag. cutoff                  -20.0000000 cm⁻¹ :
          :.................................................:

    mode    ω/cm⁻¹     T·S(HO)/kcal·mol⁻¹    T·S(FR)/kcal·mol⁻¹   T·S(vib)
   ------------------------------------------------------------------------
       1     10.89    -2.33772 (  0.22%)    -1.50783 ( 99.78%)    -1.50969
       2     12.01    -2.27984 (  0.33%)    -1.47889 ( 99.67%)    -1.48155
       3     23.21    -1.88996 (  4.43%)    -1.28389 ( 95.57%)    -1.31076
       4     25.50    -1.83410 (  6.34%)    -1.25593 ( 93.66%)    -1.29259
       5     36.95    -1.61487 ( 22.97%)    -1.14613 ( 77.03%)    -1.25380
       6     44.33    -1.50734 ( 38.19%)    -1.09219 ( 61.81%)    -1.25072
       7     49.91    -1.43731 ( 49.83%)    -1.05703 ( 50.17%)    -1.24652
       8     53.09    -1.40090 ( 55.98%)    -1.03873 ( 44.02%)    -1.24146
       9     61.99    -1.30968 ( 70.27%)    -0.99284 ( 29.73%)    -1.21547
      10     71.23    -1.22813 ( 80.46%)    -0.95171 ( 19.54%)    -1.17412
      11     80.65    -1.15532 ( 87.13%)    -0.91490 ( 12.87%)    -1.12438
      12     86.71    -1.11296 ( 90.05%)    -0.89343 (  9.95%)    -1.09111
      13     88.81    -1.09903 ( 90.87%)    -0.88636 (  9.13%)    -1.07961
      14     97.69    -1.04347 ( 93.58%)    -0.85811 (  6.42%)    -1.03156
      15    108.81    -0.98090 ( 95.73%)    -0.82618 (  4.27%)    -0.97430
      16    158.51    -0.76548 ( 99.02%)    -0.71473 (  0.98%)    -0.76498
      17    168.71    -0.73040 ( 99.23%)    -0.69626 (  0.77%)    -0.73014
      18    169.99    -0.72616 ( 99.26%)    -0.69402 (  0.74%)    -0.72592
      19    186.12    -0.67563 ( 99.48%)    -0.66716 (  0.52%)    -0.67559
      20    219.94    -0.58425 ( 99.73%)    -0.61771 (  0.27%)    -0.58434
      21    235.26    -0.54813 ( 99.80%)    -0.59776 (  0.20%)    -0.54823
      22    237.75    -0.54254 ( 99.80%)    -0.59465 (  0.20%)    -0.54264
      23    244.04    -0.52869 ( 99.82%)    -0.58691 (  0.18%)    -0.52879
      24    257.84    -0.49981 ( 99.86%)    -0.57062 (  0.14%)    -0.49991
      25    268.81    -0.47819 ( 99.88%)    -0.55827 (  0.12%)    -0.47828
      26    288.77    -0.44160 ( 99.91%)    -0.53705 (  0.09%)    -0.44168
      27    296.44    -0.42842 ( 99.92%)    -0.52929 (  0.08%)    -0.42850
   ------------------------------------------------------------------------

   temp. (K)  partition function   enthalpy   heat capacity  entropy
                                   cal/mol     cal/K/mol   cal/K/mol   J/K/mol
 298.15  VIB  0.162E+15            16506.464    101.488    107.119
         ROT  0.154E+08              888.752      2.981     35.866
         INT  0.248E+22            17395.216    104.469    142.984
         TR   0.830E+28             1481.254      4.968     43.970
         TOT                       18876.4699   109.4374   186.9540   782.2156

       T/K    H(0)-H(T)+PV         H(T)/Eh          T*S/Eh         G(T)/Eh
   ------------------------------------------------------------------------
    298.15    0.300816E-01    0.528544E+00    0.888279E-01    0.439716E+00
   ------------------------------------------------------------------------

         :::::::::::::::::::::::::::::::::::::::::::::::::::::
         ::                  THERMODYNAMIC                  ::
         :::::::::::::::::::::::::::::::::::::::::::::::::::::
         :: total free energy         -83.431569841388 Eh   ::
         ::.................................................::
         :: total energy              -83.871285980787 Eh   ::
         :: zero point energy           0.498462456230 Eh   ::
         :: G(RRHO) w/o ZPVE           -0.058746316831 Eh   ::
         :: G(RRHO) contrib.            0.439716139400 Eh   ::
         :::::::::::::::::::::::::::::::::::::::::::::::::::::

           -------------------------------------------------
          | TOTAL ENERGY              -83.871285980787 Eh   |
          | TOTAL ENTHALPY            -83.342741955055 Eh   |
          | TOTAL FREE ENERGY         -83.431569841388 Eh   |
          | GRADIENT NORM               0.000326434925 Eh/α |
          | HOMO-LUMO GAP               2.357781089680 eV   |
           -------------------------------------------------

------------------------------------------------------------------------
 * finished run on 2022/05/27 at 18:14:46.131     
------------------------------------------------------------------------
 total:
 * wall-time:     0 d,  0 h,  2 min, 43.684 sec
 *  cpu-time:     0 d,  0 h,  0 min, 22.313 sec
 * ratio c/w:     0.136 speedup
 SCF:
 * wall-time:     0 d,  0 h,  0 min,  0.689 sec
 *  cpu-time:     0 d,  0 h,  0 min,  0.104 sec
 * ratio c/w:     0.150 speedup
 analytical hessian:
 * wall-time:     0 d,  0 h,  2 min, 42.570 sec
 *  cpu-time:     0 d,  0 h,  0 min, 22.176 sec
 * ratio c/w:     0.136 speedup

