 Entering Gaussian System
 *********************************************
 Gaussian 98:
 frequency output generated by the xtb code
 *********************************************
                         Standard orientation:
 --------------------------------------------------------------------
  Center     Atomic     Atomic              Coordinates (Angstroms)
  Number     Number      Type              X           Y           Z
 --------------------------------------------------------------------
    1         28             0       -0.020799   -1.200127   -0.670474
    2          7             0       -1.459789    0.401445   -0.500646
    3          6             0       -2.717766    0.295856   -0.257218
    4          7             0       -3.585606    1.337338   -0.212879
    5          6             0       -5.005607    1.149055   -0.017423
    6          6             0       -5.365335    0.742754    1.416128
    7          6             0       -5.196900   -0.754410    1.658094
    8          6             0       -3.767111   -1.246305    1.447750
    9          6             0       -3.261200   -1.077340    0.012367
   10          6             0       -3.123204    2.710732   -0.262384
   11          6             0       -1.637209    2.780755    0.053282
   12          6             0       -0.931547    1.722353   -0.787789
   13          1             0       -5.492535    2.095998   -0.264313
   14          1             0       -5.382134    0.396676   -0.716895
   15          1             0       -6.404348    1.017545    1.609914
   16          1             0       -4.736236    1.303477    2.111454
   17          1             0       -5.864454   -1.299854    0.985827
   18          1             0       -5.504050   -0.983472    2.681384
   19          1             0       -3.089832   -0.725168    2.127932
   20          1             0       -3.730395   -2.307251    1.702232
   21          1             0       -2.421377   -1.763755   -0.160506
   22          1             0       -4.049684   -1.327719   -0.699803
   23          1             0       -3.693202    3.300173    0.465177
   24          1             0       -3.315860    3.128647   -1.260835
   25          1             0       -1.474477    2.565010    1.112152
   26          1             0       -1.252866    3.778009   -0.161247
   27          1             0        0.142257    1.712400   -0.589918
   28          1             0       -1.072405    1.940237   -1.854713
   29          7             0        1.457377   -0.240316    0.578655
   30          6             0        2.717190   -0.128442    0.347955
   31          7             0        3.610671    0.436142    1.198115
   32          6             0        5.030086    0.454005    0.924349
   33          6             0        5.415578    1.439547   -0.184516
   34          6             0        5.213711    0.856858   -1.580302
   35          6             0        3.766906    0.466703   -1.871844
   36          6             0        3.232845   -0.644736   -0.963930
   37          6             0        3.180535    1.137032    2.392284
   38          6             0        1.703634    1.486939    2.297230
   39          6             0        0.955546    0.233746    1.855225
   40          1             0        5.533225    0.732167    1.854031
   41          1             0        5.371455   -0.550498    0.656733
   42          1             0        6.466370    1.711503   -0.063810
   43          1             0        4.820204    2.348782   -0.072800
   44          1             0        5.850447   -0.024628   -1.692457
   45          1             0        5.539113    1.592165   -2.320139
   46          1             0        3.119733    1.341937   -1.782307
   47          1             0        3.707969    0.123390   -2.906411
   48          1             0        2.372971   -1.128115   -1.446989
   49          1             0        3.998885   -1.406069   -0.805565
   50          1             0        3.779798    2.048590    2.500123
   51          1             0        3.361812    0.507195    3.274963
   52          1             0        1.558003    2.273279    1.552435
   53          1             0        1.338958    1.847397    3.259170
   54          1             0       -0.113959    0.428086    1.752193
   55          1             0        1.080116   -0.558103    2.605636
   56          6             0       -0.081101   -1.163349   -2.444313
   57          8             0       -0.592661   -1.112247   -3.474802
   58          6             0        0.016915   -2.682428    0.305661
   59          8             0        0.511633   -3.536930    0.898268
 --------------------------------------------------------------------
     1 basis functions        1 primitive gaussians
     1 alpha electrons        1 beta electrons

 Harmonic frequencies (cm**-1), IR intensities (km*mol⁻¹),
 Raman scattering activities (A**4/amu), Raman depolarization ratios,
 reduced masses (AMU), force constants (mDyne/A) and normal coordinates:
                      1                      2                      3
                        a                      a                      a 
 Frequencies --    10.1676                13.3170                24.4721
 Red. masses --    12.9353                13.3572                11.1618
 Frc consts  --     0.0000                 0.0000                 0.0000
 IR Inten    --     0.6019                 0.7497                 0.1016
 Raman Activ --     0.0000                 0.0000                 0.0000
 Depolar     --     0.0000                 0.0000                 0.0000
 Atom AN      X      Y      Z        X      Y      Z        X      Y      Z
   1  28     0.00  -0.10   0.19    -0.00  -0.20  -0.11     0.01  -0.05  -0.01
   2   7     0.06  -0.00   0.08     0.05  -0.05  -0.07     0.02  -0.00  -0.04
   3   6     0.04   0.02  -0.01     0.05   0.01  -0.01     0.02   0.02  -0.03
   4   7     0.07   0.05  -0.04     0.10   0.04   0.00     0.05   0.04   0.09
   5   6     0.04   0.08  -0.16     0.10   0.10   0.09     0.05   0.07   0.12
   6   6    -0.09   0.03  -0.21     0.17   0.16   0.13     0.10  -0.07   0.09
   7   6    -0.15   0.01  -0.25     0.12   0.17   0.17     0.04  -0.10  -0.07
   8   6    -0.14  -0.01  -0.15     0.09   0.10   0.10     0.01  -0.14  -0.16
   9   6    -0.02   0.03  -0.11     0.01   0.04   0.07    -0.02   0.01  -0.16
  10   6     0.11   0.03   0.08     0.14   0.02  -0.08     0.09   0.03   0.20
  11   6     0.09  -0.03   0.17     0.15  -0.02  -0.14     0.10  -0.04   0.15
  12   6     0.10  -0.00   0.15     0.09  -0.08  -0.12     0.04   0.01   0.04
  13   1     0.03   0.03  -0.05     0.03   0.03   0.03     0.02   0.03   0.07
  14   1     0.02   0.03  -0.06     0.01   0.03   0.04    -0.00   0.04   0.02
  15   1    -0.03   0.01  -0.08     0.06   0.06   0.05     0.03  -0.01   0.05
  16   1    -0.04  -0.00  -0.04     0.07   0.05   0.02     0.04  -0.05   0.04
  17   1    -0.03   0.02  -0.10     0.02   0.05   0.07    -0.00  -0.00  -0.03
  18   1    -0.07  -0.01  -0.08     0.05   0.06   0.06     0.02  -0.06  -0.02
  19   1    -0.05  -0.02  -0.02     0.04   0.03   0.01     0.02  -0.07  -0.04
  20   1    -0.05  -0.01  -0.05     0.02   0.03   0.04    -0.01  -0.05  -0.08
  21   1    -0.01   0.00  -0.02    -0.01  -0.00   0.01    -0.02  -0.00  -0.08
  22   1     0.01   0.02  -0.05    -0.01   0.01   0.04    -0.02   0.03  -0.05
  23   1     0.02   0.00   0.03     0.05   0.02  -0.03     0.04  -0.01   0.08
  24   1     0.05   0.03   0.03     0.04  -0.01  -0.03     0.02   0.04   0.07
  25   1     0.01  -0.02   0.05     0.05   0.00  -0.04     0.04  -0.04   0.04
  26   1     0.04  -0.01   0.07     0.05  -0.01  -0.05     0.04  -0.01   0.06
  27   1     0.03  -0.01   0.06     0.03  -0.03  -0.04     0.01  -0.01  -0.00
  28   1     0.05   0.01   0.05     0.02  -0.03  -0.04     0.00   0.03   0.02
  29   7     0.06  -0.07   0.04    -0.05  -0.09  -0.00    -0.01  -0.06   0.05
  30   6     0.04  -0.00  -0.03    -0.05  -0.00   0.01    -0.01  -0.02   0.04
  31   7     0.07   0.00  -0.06    -0.09   0.03   0.04    -0.05   0.11  -0.01
  32   6     0.05   0.09  -0.15    -0.09   0.14   0.03    -0.05   0.17  -0.02
  33   6    -0.08   0.16  -0.13    -0.16   0.21   0.07    -0.12   0.07  -0.13
  34   6    -0.14   0.21  -0.15    -0.12   0.24   0.05    -0.06  -0.12  -0.06
  35   6    -0.14   0.14  -0.07    -0.09   0.15   0.03    -0.03  -0.25  -0.03
  36   6    -0.02   0.08  -0.08    -0.01   0.08  -0.01     0.03  -0.16   0.11
  37   6     0.11  -0.09   0.01    -0.14  -0.06   0.06    -0.08   0.22  -0.09
  38   6     0.09  -0.13   0.11    -0.16  -0.13   0.06    -0.10   0.12  -0.12
  39   6     0.10  -0.13   0.08    -0.09  -0.15   0.00    -0.03   0.04  -0.00
  40   1     0.03   0.02  -0.05    -0.03   0.04   0.01    -0.02   0.09  -0.01
  41   1     0.02   0.03  -0.06    -0.00   0.05  -0.00     0.01   0.05   0.03
  42   1    -0.03   0.06  -0.06    -0.05   0.08   0.02    -0.04   0.05  -0.05
  43   1    -0.04   0.03  -0.02    -0.07   0.05   0.03    -0.06   0.01  -0.07
  44   1    -0.03   0.07  -0.06    -0.02   0.09   0.00    -0.00  -0.02   0.01
  45   1    -0.07   0.07  -0.04    -0.05   0.09   0.02    -0.03  -0.05  -0.04
  46   1    -0.05   0.03   0.00    -0.04   0.03   0.02    -0.03  -0.08  -0.05
  47   1    -0.05   0.05  -0.02    -0.02   0.05   0.01     0.00  -0.12   0.00
  48   1    -0.01   0.01  -0.01     0.01   0.01  -0.01     0.02  -0.08   0.05
  49   1     0.01   0.03  -0.05     0.01   0.04  -0.01     0.02  -0.03   0.06
  50   1     0.02  -0.02   0.01    -0.05  -0.01   0.03    -0.04   0.08  -0.05
  51   1     0.05  -0.04  -0.01    -0.03  -0.03   0.01    -0.01   0.09  -0.00
  52   1     0.01  -0.03   0.05    -0.05  -0.03   0.02    -0.04   0.01  -0.05
  53   1     0.04  -0.05   0.04    -0.05  -0.05   0.02    -0.04   0.05  -0.04
  54   1     0.03  -0.04   0.04    -0.03  -0.06  -0.00    -0.01  -0.01  -0.00
  55   1     0.04  -0.05   0.01    -0.02  -0.05  -0.01     0.01   0.03   0.02
  56   6    -0.04  -0.11   0.09     0.05  -0.11  -0.05     0.14   0.05  -0.01
  57   8    -0.09  -0.15   0.12     0.10  -0.18  -0.08     0.30   0.16  -0.07
  58   6    -0.04  -0.02   0.14    -0.05  -0.11  -0.07    -0.13  -0.01   0.02
  59   8    -0.09  -0.02   0.19    -0.11  -0.17  -0.11    -0.31  -0.05   0.10
                      4                      5                      6
                        a                      a                      a 
 Frequencies --    24.8448                36.9317                41.6025
 Red. masses --    14.3971                13.5311                13.7921
 Frc consts  --     0.0000                 0.0000                 0.0000
 IR Inten    --     0.1637                 0.3015                 0.0021
 Raman Activ --     0.0000                 0.0000                 0.0000
 Depolar     --     0.0000                 0.0000                 0.0000
 Atom AN      X      Y      Z        X      Y      Z        X      Y      Z
   1  28     0.11  -0.07   0.14     0.00  -0.03  -0.01     0.00   0.07   0.04
   2   7     0.03  -0.04   0.12    -0.02  -0.02  -0.04    -0.08  -0.04   0.06
   3   6     0.02  -0.03   0.07    -0.02  -0.04  -0.05    -0.07  -0.04   0.07
   4   7     0.01  -0.05  -0.06    -0.04  -0.06  -0.10    -0.08  -0.04   0.04
   5   6    -0.01  -0.05  -0.15    -0.02  -0.08  -0.01    -0.08  -0.04  -0.02
   6   6    -0.12   0.07  -0.15     0.07  -0.02   0.03    -0.14   0.02  -0.01
   7   6    -0.09   0.10   0.00     0.09  -0.01   0.09    -0.12   0.04   0.07
   8   6    -0.06   0.13   0.16     0.08  -0.01   0.03    -0.11   0.06   0.13
   9   6     0.03  -0.02   0.17     0.01  -0.04  -0.00    -0.07  -0.02   0.13
  10   6    -0.01  -0.04  -0.12    -0.06  -0.05  -0.21    -0.09  -0.04   0.03
  11   6    -0.03  -0.00  -0.06    -0.08   0.01  -0.16    -0.09  -0.03   0.02
  12   6     0.02  -0.04   0.04    -0.02  -0.03  -0.06    -0.09  -0.03   0.02
  13   1     0.00  -0.02  -0.08    -0.02  -0.03  -0.01    -0.02  -0.02  -0.02
  14   1     0.02  -0.03  -0.03    -0.01  -0.03   0.01    -0.01  -0.02   0.00
  15   1    -0.04   0.02  -0.08     0.02  -0.00   0.03    -0.05   0.00  -0.02
  16   1    -0.06   0.05  -0.04     0.03   0.00  -0.01    -0.05   0.02  -0.00
  17   1    -0.01   0.01   0.00     0.02  -0.01   0.04    -0.03  -0.00   0.02
  18   1    -0.05   0.05  -0.00     0.04   0.01   0.03    -0.04   0.02   0.02
  19   1    -0.04   0.06   0.04     0.03   0.00  -0.01    -0.04   0.03   0.03
  20   1    -0.01   0.04   0.08     0.03  -0.00   0.01    -0.03   0.02   0.06
  21   1     0.02  -0.00   0.09     0.00  -0.01  -0.01    -0.02  -0.01   0.05
  22   1     0.03  -0.03   0.04    -0.01  -0.02   0.01    -0.02  -0.02   0.04
  23   1    -0.02  -0.00  -0.05    -0.03   0.00  -0.09    -0.03  -0.01   0.01
  24   1     0.01  -0.03  -0.04    -0.01  -0.04  -0.08    -0.03  -0.01   0.01
  25   1    -0.02   0.02  -0.01    -0.03   0.02  -0.04    -0.02  -0.00   0.01
  26   1    -0.01  -0.00  -0.03    -0.03   0.00  -0.06    -0.03  -0.01   0.00
  27   1     0.00  -0.00   0.02    -0.01  -0.00   0.00    -0.03  -0.00   0.00
  28   1     0.02  -0.03   0.01     0.01  -0.02  -0.02    -0.03  -0.02   0.01
  29   7     0.04  -0.06   0.08     0.02  -0.05   0.01     0.08   0.04  -0.07
  30   6     0.03  -0.03   0.05     0.02  -0.06  -0.00     0.07   0.04  -0.07
  31   7     0.02   0.05   0.01     0.04  -0.11   0.01     0.08   0.01  -0.06
  32   6     0.01   0.12  -0.04     0.02  -0.04  -0.06     0.08  -0.04  -0.02
  33   6    -0.09   0.07  -0.11    -0.07   0.03  -0.04     0.15  -0.00   0.03
  34   6    -0.08  -0.03  -0.07    -0.10   0.08  -0.06     0.13   0.07   0.00
  35   6    -0.06  -0.14  -0.02    -0.09   0.01  -0.02     0.11   0.14  -0.02
  36   6     0.03  -0.10   0.08    -0.01  -0.03  -0.02     0.08   0.10  -0.09
  37   6     0.01   0.08  -0.01     0.06  -0.21   0.07     0.09   0.00  -0.05
  38   6     0.00   0.03  -0.00     0.08  -0.13   0.09     0.09   0.00  -0.03
  39   6     0.03  -0.01   0.06     0.02  -0.07   0.01     0.09   0.00  -0.04
  40   1     0.01   0.06  -0.02     0.02  -0.02  -0.02     0.02  -0.03   0.00
  41   1     0.02   0.04   0.00     0.02  -0.00  -0.04     0.01  -0.01  -0.02
  42   1    -0.03   0.05  -0.04    -0.02   0.02  -0.02     0.05  -0.02   0.02
  43   1    -0.04   0.01  -0.05    -0.03  -0.00   0.01     0.06   0.01   0.02
  44   1    -0.01   0.00  -0.01    -0.02   0.03  -0.03     0.03   0.02  -0.01
  45   1    -0.04  -0.02  -0.04    -0.05   0.04  -0.01     0.05   0.03   0.01
  46   1    -0.03  -0.05  -0.02    -0.04  -0.01   0.00     0.04   0.05   0.01
  47   1    -0.02  -0.07   0.00    -0.03   0.01  -0.01     0.03   0.06  -0.01
  48   1     0.01  -0.05   0.04    -0.00  -0.02  -0.00     0.02   0.04  -0.04
  49   1     0.02  -0.01   0.04     0.01   0.00  -0.02     0.02   0.02  -0.04
  50   1    -0.00   0.03  -0.02     0.03  -0.07   0.05     0.03   0.00  -0.01
  51   1     0.01   0.04   0.00     0.01  -0.09   0.00     0.03   0.00  -0.01
  52   1    -0.01  -0.00  -0.01     0.03  -0.02   0.04     0.02   0.00  -0.01
  53   1     0.00   0.02  -0.00     0.03  -0.05   0.03     0.03  -0.00  -0.01
  54   1     0.01  -0.01   0.02     0.01   0.00  -0.00     0.03  -0.00  -0.01
  55   1     0.02   0.01   0.03    -0.02  -0.03  -0.01     0.03  -0.00  -0.02
  56   6     0.02   0.17   0.07     0.07   0.15  -0.00     0.16  -0.01   0.01
  57   8    -0.04   0.43   0.12     0.17   0.51  -0.03     0.46  -0.15  -0.13
  58   6     0.05  -0.16  -0.12    -0.06   0.08   0.13    -0.17   0.01  -0.01
  59   8     0.03  -0.34  -0.35    -0.16   0.24   0.44    -0.49  -0.19  -0.05
                      7                      8                      9
                        a                      a                      a 
 Frequencies --    45.8198                50.1453                70.1387
 Red. masses --    15.0225                14.9497                20.1737
 Frc consts  --     0.0000                 0.0000                 0.0000
 IR Inten    --     0.4589                 0.0843                 1.1973
 Raman Activ --     0.0000                 0.0000                 0.0000
 Depolar     --     0.0000                 0.0000                 0.0000
 Atom AN      X      Y      Z        X      Y      Z        X      Y      Z
   1  28    -0.06   0.07  -0.15     0.00   0.24   0.13     0.21   0.17  -0.31
   2   7    -0.02   0.01   0.07    -0.01   0.13  -0.01     0.07   0.03   0.02
   3   6    -0.02   0.01   0.08    -0.01   0.07  -0.06     0.07  -0.02   0.05
   4   7    -0.01   0.02   0.08    -0.07   0.03  -0.09     0.03  -0.05   0.05
   5   6    -0.03   0.02  -0.04    -0.04  -0.04   0.04     0.02  -0.10  -0.08
   6   6    -0.15   0.06  -0.06     0.11  -0.08   0.06    -0.11  -0.05  -0.10
   7   6    -0.13   0.07  -0.00     0.14  -0.08   0.02     0.02  -0.02   0.02
   8   6    -0.10   0.11   0.12     0.13  -0.06  -0.10     0.08   0.10   0.14
   9   6    -0.01   0.02   0.14     0.03   0.04  -0.12     0.11  -0.02   0.14
  10   6    -0.01   0.02   0.12    -0.12   0.04  -0.19    -0.02  -0.03   0.11
  11   6    -0.01   0.00   0.09    -0.15   0.13  -0.07    -0.01   0.00   0.07
  12   6    -0.03   0.01   0.05    -0.02   0.13   0.04    -0.01   0.05   0.00
  13   1    -0.00   0.00  -0.03    -0.03  -0.02   0.03     0.00  -0.04  -0.05
  14   1     0.01   0.00  -0.01    -0.02  -0.01   0.02     0.04  -0.04  -0.03
  15   1    -0.05   0.01  -0.05     0.04  -0.03   0.05    -0.05  -0.04  -0.07
  16   1    -0.07   0.03  -0.01     0.05  -0.02   0.00    -0.07   0.02  -0.02
  17   1    -0.02   0.01  -0.01     0.03  -0.02   0.02     0.03  -0.04   0.01
  18   1    -0.06   0.03  -0.00     0.06  -0.03   0.01    -0.01   0.01   0.00
  19   1    -0.05   0.05   0.04     0.05  -0.03  -0.03    -0.00   0.07   0.03
  20   1    -0.02   0.04   0.06     0.04  -0.02  -0.05     0.05   0.04   0.08
  21   1     0.00   0.01   0.07     0.01   0.02  -0.06     0.04  -0.00   0.06
  22   1     0.01  -0.01   0.03    -0.00   0.02  -0.02     0.04  -0.03   0.04
  23   1     0.00  -0.00   0.04    -0.06   0.03  -0.09    -0.01  -0.03   0.05
  24   1    -0.01   0.02   0.04    -0.02  -0.02  -0.07    -0.02   0.01   0.04
  25   1     0.00  -0.01   0.02    -0.07   0.06  -0.01     0.01  -0.01   0.01
  26   1    -0.00   0.00   0.03    -0.05   0.04  -0.03    -0.02   0.01   0.02
  27   1    -0.01   0.00   0.00    -0.01   0.05   0.05     0.00   0.03  -0.02
  28   1    -0.02   0.01   0.02     0.03   0.03   0.00    -0.02   0.02   0.00
  29   7    -0.02  -0.07   0.02     0.01   0.05   0.12     0.06  -0.03  -0.02
  30   6    -0.02  -0.07   0.02     0.01  -0.02   0.10     0.07  -0.03   0.04
  31   7    -0.02  -0.07   0.02     0.07  -0.07   0.07     0.03  -0.01   0.07
  32   6    -0.03   0.03  -0.03     0.04   0.01  -0.06     0.03   0.12   0.04
  33   6    -0.14   0.03  -0.07    -0.12   0.02  -0.11    -0.10   0.11  -0.01
  34   6    -0.11  -0.03  -0.05    -0.16  -0.02  -0.08     0.02  -0.01   0.02
  35   6    -0.08  -0.14  -0.03    -0.14  -0.12  -0.00     0.07  -0.17  -0.01
  36   6    -0.01  -0.12   0.04    -0.04  -0.09   0.10     0.11  -0.11   0.09
  37   6    -0.02  -0.09   0.03     0.12  -0.15   0.14    -0.02  -0.08   0.09
  38   6    -0.02  -0.07   0.03     0.15  -0.00   0.15    -0.01  -0.05   0.03
  39   6    -0.03  -0.06   0.01     0.02   0.10   0.09    -0.01  -0.03  -0.04
  40   1    -0.00   0.02  -0.02     0.03   0.01  -0.03     0.00   0.06   0.01
  41   1     0.01   0.01  -0.01     0.02   0.01  -0.02     0.04   0.04   0.02
  42   1    -0.05   0.04  -0.03    -0.04   0.03  -0.05    -0.04   0.08  -0.00
  43   1    -0.06  -0.01  -0.03    -0.05  -0.01  -0.02    -0.07   0.01  -0.02
  44   1    -0.01   0.00  -0.01    -0.03   0.00  -0.03     0.03   0.01   0.03
  45   1    -0.05  -0.01  -0.02    -0.07  -0.00  -0.03    -0.01  -0.01  -0.00
  46   1    -0.04  -0.05  -0.02    -0.06  -0.05  -0.01    -0.00  -0.06  -0.04
  47   1    -0.02  -0.06  -0.00    -0.05  -0.06   0.01     0.05  -0.09   0.01
  48   1     0.00  -0.06   0.02    -0.01  -0.04   0.05     0.04  -0.05   0.03
  49   1     0.01  -0.02   0.02     0.00  -0.01   0.03     0.04  -0.02   0.05
  50   1    -0.01  -0.03   0.02     0.06  -0.06   0.07    -0.01  -0.03   0.05
  51   1    -0.01  -0.03   0.00     0.01  -0.08   0.02    -0.02  -0.04   0.02
  52   1    -0.00  -0.02   0.01     0.07   0.01   0.06     0.01  -0.01   0.01
  53   1    -0.01  -0.02   0.01     0.05  -0.00   0.05    -0.01  -0.02   0.01
  54   1    -0.01  -0.01  -0.00     0.01   0.07   0.02    -0.00   0.00  -0.03
  55   1    -0.02  -0.02   0.00    -0.03   0.02   0.02    -0.02  -0.01  -0.01
  56   6     0.14  -0.01  -0.08     0.06  -0.03   0.05    -0.06   0.05  -0.14
  57   8     0.46  -0.15  -0.24     0.12  -0.33   0.02    -0.38  -0.19  -0.02
  58   6     0.13   0.06  -0.03    -0.05   0.03  -0.05    -0.05   0.09  -0.12
  59   8     0.45   0.28   0.02    -0.08  -0.13  -0.29    -0.37   0.13   0.15
                     10                     11                     12
                        a                      a                      a 
 Frequencies --    77.5574                83.4209                87.9704
 Red. masses --    10.2245                10.3427                10.0783
 Frc consts  --     0.0000                 0.0000                 0.0000
 IR Inten    --     0.2833                 0.1453                 0.7639
 Raman Activ --     0.0000                 0.0000                 0.0000
 Depolar     --     0.0000                 0.0000                 0.0000
 Atom AN      X      Y      Z        X      Y      Z        X      Y      Z
   1  28     0.12  -0.01   0.02     0.00  -0.07  -0.04    -0.02   0.04   0.00
   2   7    -0.04  -0.10  -0.17     0.15   0.08   0.03    -0.04   0.01   0.02
   3   6    -0.00  -0.05   0.01     0.14   0.01  -0.01    -0.05   0.01  -0.03
   4   7     0.06  -0.01   0.16     0.09  -0.05  -0.06    -0.06   0.01  -0.08
   5   6     0.03   0.06   0.06     0.08  -0.13  -0.16    -0.04   0.01   0.00
   6   6    -0.09  -0.02   0.01    -0.00  -0.07  -0.16     0.03   0.05   0.03
   7   6    -0.14  -0.04  -0.08     0.18  -0.02  -0.00     0.01   0.04   0.04
   8   6    -0.12  -0.04  -0.00     0.24   0.12   0.09    -0.02  -0.00  -0.03
   9   6    -0.04  -0.03   0.03     0.22  -0.01   0.07    -0.06   0.01  -0.05
  10   6     0.09  -0.02   0.20     0.02  -0.01   0.12    -0.05   0.01  -0.02
  11   6     0.17  -0.08  -0.16     0.01   0.02   0.15    -0.06  -0.01   0.05
  12   6    -0.07  -0.11  -0.32     0.06   0.11   0.07    -0.03   0.01   0.05
  13   1     0.03   0.03   0.03     0.01  -0.05  -0.08    -0.02   0.00  -0.00
  14   1     0.01   0.04  -0.00     0.06  -0.06  -0.04    -0.02  -0.00   0.01
  15   1    -0.03  -0.00  -0.02    -0.02  -0.05  -0.08     0.02   0.02   0.03
  16   1    -0.04  -0.02   0.03    -0.04   0.02  -0.04     0.03   0.01  -0.01
  17   1    -0.03   0.00  -0.05     0.08  -0.05   0.01    -0.01   0.02   0.02
  18   1    -0.06  -0.03  -0.03     0.05   0.01   0.00     0.02   0.02   0.02
  19   1    -0.05  -0.01   0.01     0.05   0.08   0.01     0.01  -0.01  -0.01
  20   1    -0.04  -0.01  -0.00     0.10   0.05   0.07    -0.01  -0.00  -0.01
  21   1    -0.01  -0.01   0.02     0.07   0.01   0.03    -0.02  -0.00  -0.02
  22   1    -0.00  -0.01  -0.00     0.07  -0.03   0.03    -0.02   0.01  -0.01
  23   1     0.08  -0.03   0.12    -0.01  -0.04   0.06    -0.02  -0.00  -0.01
  24   1    -0.04   0.03   0.09     0.00   0.03   0.05    -0.00   0.01  -0.01
  25   1     0.12  -0.02  -0.06     0.00  -0.02   0.04    -0.03  -0.01   0.01
  26   1     0.04  -0.03  -0.07    -0.01   0.01   0.07    -0.01  -0.00   0.03
  27   1    -0.01  -0.04  -0.17     0.02   0.05   0.02    -0.01   0.00   0.02
  28   1    -0.10  -0.04  -0.08     0.01   0.05   0.03    -0.00   0.01   0.01
  29   7    -0.03   0.19  -0.01    -0.15   0.07   0.06     0.10  -0.16  -0.03
  30   6    -0.00   0.01   0.05    -0.14  -0.00   0.01     0.11  -0.23   0.03
  31   7     0.05  -0.13   0.09    -0.09  -0.08  -0.00     0.11  -0.36   0.13
  32   6     0.03  -0.08  -0.01    -0.09  -0.21  -0.03     0.08  -0.13   0.05
  33   6    -0.09   0.01   0.02    -0.01  -0.17   0.03    -0.13   0.10   0.18
  34   6    -0.13   0.09  -0.01    -0.18  -0.00  -0.02    -0.12   0.27   0.11
  35   6    -0.12   0.02   0.03    -0.24   0.15   0.06    -0.05   0.01   0.11
  36   6    -0.03  -0.01   0.05    -0.22   0.06  -0.04     0.15  -0.16   0.02
  37   6     0.09  -0.16   0.12    -0.01   0.10  -0.08     0.06   0.16  -0.18
  38   6     0.17   0.17  -0.02    -0.01   0.14  -0.07     0.06   0.11  -0.34
  39   6    -0.06   0.33  -0.08    -0.06   0.12   0.06     0.12  -0.02  -0.06
  40   1     0.03  -0.04  -0.01    -0.01  -0.09  -0.01     0.03  -0.07   0.02
  41   1     0.01  -0.02  -0.03    -0.06  -0.07  -0.03     0.04  -0.01  -0.04
  42   1    -0.03   0.02  -0.01     0.01  -0.10  -0.00    -0.05   0.08   0.05
  43   1    -0.04  -0.01   0.03     0.04  -0.03   0.04    -0.08  -0.00   0.10
  44   1    -0.02   0.04  -0.03    -0.08  -0.01  -0.05     0.02   0.12  -0.02
  45   1    -0.06   0.05   0.01    -0.05   0.01   0.01    -0.09   0.13   0.06
  46   1    -0.05  -0.00   0.02    -0.05   0.05   0.07    -0.06  -0.03   0.05
  47   1    -0.04   0.01   0.01    -0.10   0.09   0.00     0.00   0.03   0.02
  48   1    -0.01  -0.01   0.02    -0.07   0.03  -0.01     0.06  -0.06   0.00
  49   1     0.00   0.01   0.00    -0.07   0.01  -0.04     0.07  -0.02  -0.02
  50   1     0.08  -0.09   0.08     0.01   0.03  -0.07     0.01   0.06  -0.15
  51   1    -0.04  -0.09   0.02     0.00   0.06  -0.00     0.02   0.15   0.02
  52   1     0.12   0.06  -0.01    -0.00   0.02  -0.04     0.02  -0.02  -0.16
  53   1     0.05   0.07  -0.02     0.01   0.07  -0.03     0.00   0.10  -0.13
  54   1    -0.00   0.16  -0.06    -0.02   0.04   0.03     0.03  -0.04  -0.01
  55   1    -0.10   0.09  -0.01    -0.01   0.05   0.03     0.07   0.03   0.02
  56   6     0.05   0.00   0.01     0.03  -0.01  -0.02    -0.03   0.00   0.01
  57   8    -0.02   0.06   0.05     0.11   0.01  -0.07    -0.07  -0.03   0.03
  58   6     0.05  -0.00   0.00    -0.03  -0.03  -0.00    -0.01   0.01  -0.01
  59   8    -0.02  -0.07  -0.03    -0.11  -0.05   0.05     0.05   0.05  -0.02
                     13                     14                     15
                        a                      a                      a 
 Frequencies --    88.4137                97.6652               111.0140
 Red. masses --     9.9344                16.6714                10.6303
 Frc consts  --     0.0000                 0.0000                 0.0000
 IR Inten    --     1.1417                 0.1778                 0.0379
 Raman Activ --     0.0000                 0.0000                 0.0000
 Depolar     --     0.0000                 0.0000                 0.0000
 Atom AN      X      Y      Z        X      Y      Z        X      Y      Z
   1  28    -0.02  -0.01  -0.04    -0.19  -0.15   0.27    -0.00  -0.15  -0.08
   2   7     0.10   0.11   0.13     0.03   0.18  -0.08     0.06  -0.04   0.25
   3   6     0.11   0.10   0.21     0.04   0.10  -0.03     0.02  -0.02   0.08
   4   7     0.10   0.08   0.36    -0.01   0.06   0.02     0.03  -0.01  -0.04
   5   6     0.07   0.04   0.14    -0.01  -0.04  -0.05     0.03   0.01   0.00
   6   6    -0.13  -0.20   0.03    -0.07  -0.09  -0.07     0.08   0.05   0.03
   7   6    -0.13  -0.23  -0.17     0.11  -0.06  -0.04    -0.03   0.04   0.02
   8   6    -0.06  -0.10   0.04     0.17   0.10   0.01    -0.06  -0.07  -0.00
   9   6     0.13   0.07   0.13     0.13   0.08  -0.00    -0.02  -0.02   0.02
  10   6     0.04   0.07  -0.26    -0.09   0.09   0.17     0.05  -0.03  -0.19
  11   6     0.04   0.23  -0.28    -0.06   0.14   0.01    -0.03  -0.02   0.18
  12   6     0.11   0.07  -0.00    -0.08   0.20  -0.11     0.15  -0.05   0.37
  13   1     0.03   0.02   0.08    -0.02  -0.02  -0.02     0.01   0.00  -0.00
  14   1     0.04   0.04  -0.01     0.02  -0.02  -0.02    -0.00  -0.00   0.01
  15   1    -0.05  -0.07  -0.03    -0.03  -0.06  -0.05     0.03   0.04   0.03
  16   1    -0.07  -0.08   0.06    -0.06   0.00  -0.01     0.05   0.00  -0.00
  17   1     0.01  -0.05  -0.11     0.06  -0.05  -0.01    -0.02   0.03   0.01
  18   1    -0.09  -0.11  -0.08     0.03  -0.02  -0.01    -0.01   0.02   0.01
  19   1    -0.06  -0.03   0.06     0.03   0.07  -0.01    -0.01  -0.05   0.01
  20   1    -0.01  -0.04  -0.02     0.09   0.04   0.02    -0.05  -0.03  -0.02
  21   1     0.05   0.03   0.05     0.05   0.04  -0.00    -0.01  -0.01   0.01
  22   1     0.07   0.03   0.00     0.04   0.00   0.01    -0.00   0.01  -0.00
  23   1     0.01   0.10  -0.15    -0.01  -0.01   0.09    -0.04   0.04  -0.13
  24   1     0.01  -0.10  -0.13    -0.07   0.06   0.07     0.09  -0.06  -0.09
  25   1     0.01   0.15  -0.06     0.02   0.03  -0.01    -0.09   0.01   0.07
  26   1    -0.01   0.06  -0.16    -0.04   0.05   0.00     0.01  -0.01   0.07
  27   1     0.03   0.03   0.04    -0.02   0.08  -0.07     0.03  -0.02   0.18
  28   1     0.08  -0.03  -0.02    -0.07   0.06  -0.03     0.12  -0.01   0.10
  29   7    -0.01  -0.07  -0.01     0.03  -0.03  -0.19    -0.05   0.19  -0.17
  30   6    -0.01  -0.05  -0.01     0.04  -0.03  -0.10    -0.02   0.06  -0.06
  31   7    -0.02  -0.05  -0.01    -0.02  -0.05  -0.04    -0.03  -0.04   0.01
  32   6    -0.02  -0.05   0.01    -0.01   0.06   0.01    -0.03   0.01   0.01
  33   6    -0.01  -0.02   0.03    -0.06   0.11   0.03    -0.08   0.06   0.03
  34   6    -0.03   0.03   0.02     0.11   0.06   0.03     0.03   0.04   0.02
  35   6    -0.03   0.03   0.02     0.16  -0.07  -0.08     0.06  -0.04  -0.06
  36   6    -0.01  -0.01  -0.02     0.13  -0.04  -0.07     0.02   0.00  -0.03
  37   6    -0.03   0.06  -0.07    -0.10  -0.19   0.01    -0.06  -0.18   0.08
  38   6    -0.05  -0.00  -0.07    -0.06  -0.08  -0.11     0.03   0.14  -0.11
  39   6     0.00  -0.06  -0.00    -0.09  -0.01  -0.22    -0.15   0.30  -0.24
  40   1    -0.01  -0.02   0.01    -0.02   0.02   0.01    -0.01  -0.00   0.00
  41   1    -0.01  -0.01  -0.01     0.02   0.03  -0.00     0.00   0.01  -0.01
  42   1    -0.00  -0.01   0.01    -0.03   0.07   0.03    -0.03   0.05   0.02
  43   1     0.00  -0.00   0.02    -0.05   0.01  -0.00    -0.05  -0.00   0.00
  44   1    -0.01   0.01  -0.01     0.06   0.03   0.03     0.02   0.02   0.02
  45   1    -0.01   0.02   0.01     0.03   0.02   0.01     0.01   0.01   0.01
  46   1    -0.01   0.01   0.02     0.03  -0.03  -0.06     0.01  -0.02  -0.05
  47   1    -0.01   0.02   0.00     0.09  -0.04  -0.02     0.05  -0.03  -0.01
  48   1    -0.00  -0.00  -0.01     0.05  -0.02  -0.03     0.01  -0.00  -0.01
  49   1    -0.00  -0.00  -0.02     0.04  -0.01   0.00     0.00  -0.00   0.01
  50   1    -0.02   0.03  -0.05    -0.01  -0.07   0.06     0.03  -0.10   0.10
  51   1     0.00   0.05  -0.00    -0.07  -0.09  -0.01    -0.10  -0.11  -0.00
  52   1    -0.03  -0.01  -0.03     0.02  -0.01  -0.03     0.09   0.06  -0.03
  53   1    -0.01   0.01  -0.03    -0.04  -0.03  -0.04    -0.01   0.05  -0.04
  54   1    -0.00  -0.03   0.01    -0.02   0.02  -0.10    -0.03   0.15  -0.12
  55   1     0.02  -0.01   0.01    -0.07  -0.01  -0.07    -0.13   0.08  -0.06
  56   6    -0.02   0.00  -0.02    -0.06  -0.13   0.13    -0.05  -0.02  -0.02
  57   8     0.02  -0.02  -0.04     0.10   0.09   0.09     0.02   0.01  -0.06
  58   6    -0.03  -0.00  -0.00    -0.06  -0.04   0.18     0.05  -0.03   0.00
  59   8    -0.06   0.01   0.04     0.09  -0.13  -0.03    -0.01  -0.05   0.05
                     16                     17                     18
                        a                      a                      a 
 Frequencies --   162.9165               163.7253               171.0832
 Red. masses --    21.7100                13.1596                25.6842
 Frc consts  --     0.0000                 0.0000                 0.0000
 IR Inten    --     0.8274                 0.1419                 0.3967
 Raman Activ --     0.0000                 0.0000                 0.0000
 Depolar     --     0.0000                 0.0000                 0.0000
 Atom AN      X      Y      Z        X      Y      Z        X      Y      Z
   1  28     0.50  -0.03   0.04    -0.01  -0.25  -0.14    -0.57   0.04  -0.05
   2   7     0.02   0.10   0.13    -0.10   0.01  -0.18     0.10  -0.00   0.17
   3   6     0.00   0.05   0.07    -0.09   0.05  -0.11     0.08  -0.04   0.10
   4   7    -0.05   0.03  -0.13    -0.07   0.06   0.19     0.07  -0.06  -0.17
   5   6    -0.03  -0.01  -0.00    -0.09   0.08   0.09     0.09  -0.09  -0.10
   6   6     0.13   0.10   0.06    -0.23  -0.06   0.01     0.19   0.01  -0.05
   7   6    -0.09   0.07  -0.01     0.05  -0.03   0.04    -0.00  -0.00  -0.03
   8   6    -0.15  -0.12  -0.04     0.12   0.20  -0.02    -0.05  -0.17   0.03
   9   6     0.03   0.03   0.04    -0.10   0.06  -0.11     0.10  -0.06   0.10
  10   6    -0.14   0.07   0.09    -0.01   0.03  -0.07     0.03  -0.03   0.07
  11   6    -0.13   0.14  -0.03    -0.04  -0.03   0.08     0.06   0.02  -0.07
  12   6    -0.13   0.13  -0.02     0.02   0.01   0.08     0.00  -0.02  -0.06
  13   1    -0.02  -0.01  -0.02    -0.01   0.04   0.05     0.01  -0.04  -0.05
  14   1    -0.01  -0.03   0.03    -0.03   0.05  -0.01     0.03  -0.05  -0.01
  15   1     0.06   0.08   0.07    -0.09  -0.08  -0.05     0.07   0.05   0.02
  16   1     0.10  -0.01  -0.01    -0.14   0.02   0.04     0.10  -0.02  -0.04
  17   1    -0.05   0.06  -0.01     0.03  -0.05   0.02    -0.01   0.02  -0.02
  18   1    -0.03   0.01  -0.01     0.04  -0.01   0.02    -0.02   0.01  -0.01
  19   1    -0.03  -0.10   0.03     0.03   0.13  -0.05    -0.01  -0.10   0.05
  20   1    -0.10  -0.05  -0.07     0.10   0.07   0.05    -0.06  -0.06  -0.03
  21   1     0.03   0.02   0.04    -0.04   0.01  -0.06     0.04  -0.01   0.05
  22   1     0.04   0.00  -0.02    -0.06   0.03   0.01     0.06  -0.02   0.00
  23   1    -0.04  -0.03   0.07    -0.02   0.06  -0.07     0.02  -0.05   0.07
  24   1    -0.08   0.06   0.05     0.04  -0.04  -0.05    -0.03   0.04   0.05
  25   1    -0.01   0.06  -0.01    -0.05  -0.03   0.03     0.05   0.03  -0.02
  26   1    -0.05   0.04  -0.03     0.00  -0.01   0.05     0.00   0.01  -0.05
  27   1    -0.03   0.07  -0.04    -0.00  -0.02   0.08     0.01   0.01  -0.06
  28   1    -0.08   0.01  -0.01     0.07   0.04   0.02    -0.05  -0.04  -0.02
  29   7     0.01  -0.16  -0.02     0.10  -0.16   0.10     0.09  -0.14   0.09
  30   6     0.00  -0.09  -0.01     0.09  -0.08   0.10     0.08  -0.06   0.09
  31   7    -0.05   0.09  -0.09     0.08   0.20  -0.05     0.08   0.16  -0.04
  32   6    -0.03   0.00   0.00     0.09   0.11   0.02     0.09   0.13   0.02
  33   6     0.12  -0.11  -0.05     0.23  -0.03  -0.06     0.18   0.03  -0.04
  34   6    -0.09  -0.02  -0.06    -0.05   0.02  -0.04     0.00   0.03  -0.01
  35   6    -0.14   0.10   0.08    -0.12   0.10   0.19    -0.04   0.06   0.15
  36   6     0.03  -0.05  -0.01     0.10  -0.07   0.12     0.10  -0.06   0.10
  37   6    -0.15  -0.11  -0.01     0.01  -0.05   0.06     0.03  -0.05   0.06
  38   6    -0.13  -0.05  -0.13     0.05   0.06  -0.07     0.06   0.05  -0.06
  39   6    -0.13  -0.05  -0.12    -0.03   0.08  -0.03     0.01   0.06  -0.01
  40   1    -0.02   0.02   0.00     0.01   0.06   0.00     0.01   0.06   0.00
  41   1    -0.01  -0.01   0.04     0.03   0.02   0.05     0.03   0.03   0.04
  42   1     0.06  -0.11  -0.03     0.09  -0.09  -0.05     0.07  -0.04  -0.03
  43   1     0.10   0.01  -0.00     0.14   0.04  -0.00     0.10   0.04  -0.01
  44   1    -0.05  -0.02  -0.06    -0.04  -0.00  -0.05    -0.01   0.00  -0.03
  45   1    -0.03   0.00  -0.01    -0.04   0.01  -0.02    -0.02   0.01  -0.01
  46   1    -0.03   0.03   0.10    -0.03   0.03   0.15    -0.01   0.01   0.10
  47   1    -0.09   0.08   0.01    -0.10   0.09   0.04    -0.05   0.06   0.03
  48   1     0.02  -0.04  -0.00     0.04  -0.05   0.04     0.04  -0.04   0.03
  49   1     0.04   0.01  -0.02     0.07   0.02   0.02     0.05   0.01   0.02
  50   1    -0.04  -0.04   0.06     0.02  -0.03   0.09     0.02  -0.03   0.08
  51   1    -0.08  -0.07  -0.02    -0.04  -0.07  -0.01    -0.03  -0.06  -0.01
  52   1    -0.01  -0.03  -0.06     0.05   0.01  -0.04     0.05   0.00  -0.04
  53   1    -0.05   0.01  -0.05    -0.00   0.04  -0.04     0.01   0.04  -0.03
  54   1    -0.03  -0.00  -0.08     0.00   0.06  -0.06     0.01   0.04  -0.04
  55   1    -0.08   0.00  -0.01    -0.07   0.05   0.02    -0.05   0.04   0.02
  56   6     0.09   0.06   0.03     0.02  -0.06  -0.06    -0.12   0.04  -0.03
  57   8    -0.01  -0.06   0.08    -0.05   0.03  -0.03    -0.01   0.00  -0.11
  58   6     0.09  -0.06  -0.04    -0.02  -0.09  -0.02    -0.12   0.01  -0.05
  59   8    -0.01  -0.03   0.10     0.05  -0.01   0.04    -0.01   0.09  -0.06
                     19                     20                     21
                        a                      a                      a 
 Frequencies --   181.3596               219.5066               235.1641
 Red. masses --    26.4619                14.4923                 8.6811
 Frc consts  --     0.0000                 0.0000                 0.0000
 IR Inten    --     0.2732                 3.4939                 0.5486
 Raman Activ --     0.0000                 0.0000                 0.0000
 Depolar     --     0.0000                 0.0000                 0.0000
 Atom AN      X      Y      Z        X      Y      Z        X      Y      Z
   1  28    -0.00  -0.50  -0.28    -0.15  -0.09   0.15    -0.11  -0.02   0.03
   2   7    -0.00   0.12   0.05    -0.03  -0.01   0.08    -0.03   0.05  -0.21
   3   6    -0.01   0.09   0.03    -0.04   0.02  -0.01     0.00   0.03  -0.03
   4   7    -0.07   0.06  -0.06    -0.02   0.04  -0.02    -0.03   0.02  -0.12
   5   6    -0.05   0.01   0.01    -0.02   0.05  -0.01    -0.01   0.06   0.08
   6   6     0.05   0.06   0.05    -0.03  -0.04  -0.03     0.11  -0.01   0.09
   7   6    -0.04   0.04  -0.02     0.07  -0.02  -0.00    -0.09  -0.07  -0.16
   8   6    -0.07  -0.03  -0.04     0.08   0.03  -0.02    -0.02   0.04   0.11
   9   6     0.03   0.07   0.01    -0.04   0.02  -0.06     0.15   0.01   0.17
  10   6    -0.16   0.09   0.09     0.01   0.04   0.04     0.03   0.00  -0.13
  11   6    -0.14   0.16  -0.04     0.03   0.03  -0.06    -0.04  -0.13   0.17
  12   6    -0.12   0.15  -0.02    -0.00  -0.04  -0.00    -0.03   0.07  -0.08
  13   1    -0.03  -0.01  -0.01    -0.00   0.02   0.02    -0.00   0.02   0.05
  14   1    -0.01  -0.01   0.02    -0.01   0.03  -0.02    -0.03   0.03   0.03
  15   1     0.03   0.04   0.05    -0.02  -0.04  -0.02     0.05   0.04   0.07
  16   1     0.05  -0.00  -0.00    -0.03   0.00  -0.00     0.09  -0.06   0.03
  17   1    -0.02   0.03  -0.01     0.02  -0.02   0.01     0.03   0.03  -0.14
  18   1    -0.01   0.00  -0.01     0.03  -0.00   0.00    -0.11  -0.08  -0.09
  19   1    -0.02  -0.04   0.01     0.03   0.03  -0.03    -0.05   0.04   0.06
  20   1    -0.04  -0.02  -0.04     0.04   0.01   0.01     0.02   0.01   0.04
  21   1     0.03   0.03   0.02    -0.02   0.00  -0.04     0.08   0.03   0.10
  22   1     0.03   0.01  -0.02    -0.03   0.02  -0.00     0.07  -0.06   0.03
  23   1    -0.04  -0.01   0.06     0.02   0.00   0.03    -0.03   0.02  -0.08
  24   1    -0.09   0.06   0.05    -0.02   0.03   0.02     0.08  -0.01  -0.06
  25   1    -0.01   0.07  -0.01     0.03   0.04  -0.02    -0.07  -0.15   0.04
  26   1    -0.06   0.05  -0.03     0.01   0.00  -0.05     0.02  -0.02   0.17
  27   1    -0.03   0.07  -0.02    -0.00  -0.01  -0.01    -0.01   0.01  -0.04
  28   1    -0.05   0.03  -0.01    -0.01  -0.03  -0.00    -0.03   0.08  -0.01
  29   7     0.01   0.11   0.08    -0.03  -0.06   0.05    -0.03   0.15  -0.15
  30   6     0.01   0.08   0.06    -0.04  -0.00  -0.02     0.00   0.01  -0.04
  31   7     0.07  -0.02   0.08    -0.02  -0.00  -0.05    -0.03   0.09  -0.08
  32   6     0.05   0.01   0.00    -0.02  -0.01  -0.05    -0.01  -0.10  -0.01
  33   6    -0.05   0.07   0.03    -0.03   0.05   0.01     0.10  -0.07   0.06
  34   6     0.04   0.01   0.04     0.07   0.01   0.02    -0.08   0.18  -0.03
  35   6     0.07  -0.05  -0.01     0.08   0.00  -0.04    -0.02  -0.12   0.03
  36   6    -0.03   0.05   0.05    -0.04   0.04  -0.05     0.14  -0.15   0.08
  37   6     0.17   0.12   0.03     0.01  -0.05  -0.01     0.03   0.11  -0.07
  38   6     0.14   0.05   0.16     0.04   0.04  -0.06    -0.04  -0.07   0.21
  39   6     0.12   0.06   0.14    -0.00   0.02   0.03    -0.03   0.03  -0.10
  40   1     0.03  -0.01  -0.00    -0.00  -0.03  -0.01    -0.00  -0.05   0.01
  41   1     0.01   0.01  -0.02    -0.01   0.00  -0.04    -0.03  -0.04  -0.01
  42   1    -0.02   0.06   0.01    -0.02   0.04   0.02     0.05  -0.09   0.00
  43   1    -0.05  -0.00   0.00    -0.03   0.00  -0.00     0.09   0.01   0.07
  44   1     0.02   0.01   0.03     0.03   0.00   0.03     0.03   0.10  -0.10
  45   1     0.01  -0.01   0.01     0.03  -0.00   0.00    -0.10   0.12   0.02
  46   1     0.02  -0.01  -0.04     0.03   0.01  -0.04    -0.06  -0.07  -0.00
  47   1     0.04  -0.05   0.01     0.04  -0.02  -0.01     0.02  -0.05   0.01
  48   1    -0.03   0.04   0.02    -0.02   0.03  -0.03     0.07  -0.10   0.02
  49   1    -0.03  -0.01   0.02    -0.03  -0.01  -0.01     0.07  -0.00   0.06
  50   1     0.04   0.05  -0.04     0.02  -0.03   0.02    -0.02   0.06  -0.06
  51   1     0.09   0.07   0.03    -0.02  -0.03  -0.01     0.08   0.05  -0.02
  52   1     0.02   0.03   0.06     0.03  -0.01  -0.04    -0.07   0.05   0.15
  53   1     0.06  -0.01   0.06     0.01   0.04  -0.03     0.01  -0.13   0.11
  54   1     0.03   0.02   0.06     0.00   0.01   0.01    -0.01   0.03  -0.03
  55   1     0.05   0.01   0.03    -0.01   0.02   0.02    -0.03  -0.03  -0.07
  56   6    -0.11  -0.09  -0.14     0.17   0.55   0.04     0.08   0.11   0.01
  57   8    -0.02   0.05  -0.21    -0.01  -0.23   0.11    -0.02  -0.05   0.06
  58   6     0.11  -0.16   0.01     0.15  -0.34  -0.45     0.07  -0.07  -0.09
  59   8     0.01  -0.15   0.14    -0.00   0.04   0.25    -0.02  -0.03   0.07
                     22                     23                     24
                        a                      a                      a 
 Frequencies --   235.9904               247.0909               260.2096
 Red. masses --     7.8706                12.0875                11.6085
 Frc consts  --     0.0000                 0.0000                 0.0000
 IR Inten    --     0.0116                 3.6025                 1.4368
 Raman Activ --     0.0000                 0.0000                 0.0000
 Depolar     --     0.0000                 0.0000                 0.0000
 Atom AN      X      Y      Z        X      Y      Z        X      Y      Z
   1  28     0.00  -0.01  -0.00     0.00   0.11   0.06     0.19   0.02  -0.03
   2   7    -0.02   0.05  -0.24    -0.08  -0.04   0.13    -0.07  -0.06   0.22
   3   6     0.01   0.03  -0.03    -0.10   0.03   0.01    -0.10   0.03   0.04
   4   7    -0.03   0.01  -0.10    -0.07   0.07  -0.18    -0.09   0.08  -0.28
   5   6    -0.01   0.04   0.09    -0.06   0.13   0.01    -0.07   0.15   0.01
   6   6     0.10  -0.00   0.10     0.03  -0.09  -0.02     0.06  -0.13  -0.02
   7   6    -0.11  -0.06  -0.15     0.06  -0.11  -0.09     0.04  -0.15  -0.11
   8   6    -0.04   0.04   0.11     0.12   0.04   0.07     0.12   0.05   0.13
   9   6     0.14   0.01   0.17    -0.04   0.02   0.03    -0.08   0.04   0.07
  10   6     0.01  -0.01  -0.13     0.05   0.05  -0.01     0.03   0.07   0.03
  11   6    -0.05  -0.14   0.18     0.07  -0.05  -0.02     0.06  -0.01  -0.06
  12   6    -0.04   0.09  -0.09    -0.01  -0.10  -0.01    -0.02  -0.13   0.03
  13   1    -0.00   0.02   0.04    -0.00   0.06   0.07    -0.01   0.07   0.09
  14   1    -0.03   0.02   0.03    -0.06   0.08  -0.03    -0.07   0.10  -0.03
  15   1     0.05   0.05   0.08     0.01  -0.04   0.01     0.02  -0.04   0.02
  16   1     0.09  -0.06   0.03     0.01  -0.04   0.01     0.03  -0.06   0.01
  17   1     0.02   0.03  -0.13     0.06  -0.03  -0.07     0.07  -0.04  -0.09
  18   1    -0.11  -0.08  -0.08    -0.03  -0.05  -0.04    -0.06  -0.07  -0.06
  19   1    -0.06   0.04   0.06     0.01   0.07   0.00     0.00   0.09   0.01
  20   1     0.01   0.01   0.04     0.08   0.02   0.06     0.10   0.03   0.08
  21   1     0.07   0.03   0.10    -0.01   0.01  -0.02    -0.04   0.01  -0.03
  22   1     0.08  -0.05   0.03    -0.03   0.00   0.04    -0.06   0.02   0.06
  23   1    -0.03   0.02  -0.09     0.03   0.00   0.02     0.03  -0.01   0.06
  24   1     0.08  -0.02  -0.06     0.02   0.05   0.01    -0.01   0.08   0.04
  25   1    -0.08  -0.16   0.04     0.02  -0.01  -0.01     0.03   0.03  -0.01
  26   1     0.01  -0.02   0.18     0.04  -0.02  -0.01     0.03  -0.02  -0.05
  27   1    -0.01   0.02  -0.04    -0.00  -0.04  -0.03    -0.00  -0.04  -0.01
  28   1    -0.03   0.08  -0.01    -0.03  -0.05  -0.00    -0.02  -0.07   0.00
  29   7     0.02  -0.17   0.17     0.08   0.09  -0.11    -0.07  -0.16   0.17
  30   6    -0.01  -0.01   0.04     0.09   0.02   0.02    -0.10  -0.05  -0.00
  31   7     0.03  -0.09   0.06     0.07  -0.12   0.16    -0.08   0.20  -0.22
  32   6     0.01   0.10  -0.01     0.06   0.08   0.10    -0.07  -0.09  -0.12
  33   6    -0.10   0.09  -0.06    -0.03  -0.07  -0.07     0.06   0.09   0.10
  34   6     0.10  -0.17   0.03    -0.06  -0.13  -0.04     0.05   0.17   0.07
  35   6     0.04   0.11  -0.03    -0.11   0.09  -0.00     0.12  -0.14   0.02
  36   6    -0.14   0.15  -0.08     0.04   0.03  -0.00    -0.09  -0.08   0.01
  37   6    -0.02  -0.12   0.07    -0.05   0.02   0.05     0.03  -0.07  -0.04
  38   6     0.06   0.08  -0.21    -0.07  -0.04  -0.03     0.06   0.05  -0.02
  39   6     0.04  -0.03   0.12     0.01  -0.07  -0.08    -0.02   0.04   0.13
  40   1     0.00   0.05  -0.01     0.01   0.09   0.01    -0.01  -0.12  -0.01
  41   1     0.03   0.04  -0.00     0.06   0.02   0.08    -0.08  -0.02  -0.10
  42   1    -0.05   0.09   0.00    -0.01  -0.02  -0.04     0.02   0.01   0.04
  43   1    -0.09  -0.01  -0.07    -0.01  -0.01  -0.04     0.03   0.03   0.06
  44   1    -0.02  -0.09   0.10    -0.06  -0.07   0.01     0.07   0.10  -0.01
  45   1     0.11  -0.12  -0.02     0.03  -0.06  -0.02    -0.05   0.09   0.03
  46   1     0.06   0.07  -0.00    -0.01   0.04   0.06    -0.00  -0.06  -0.07
  47   1    -0.01   0.04  -0.01    -0.08   0.06  -0.01     0.10  -0.09   0.02
  48   1    -0.07   0.10  -0.03     0.01  -0.01   0.02    -0.04   0.02  -0.02
  49   1    -0.08  -0.00  -0.06     0.04   0.03  -0.02    -0.07  -0.06   0.01
  50   1     0.03  -0.06   0.07    -0.03   0.02  -0.01     0.03  -0.04   0.04
  51   1    -0.08  -0.06   0.02    -0.02   0.04   0.03    -0.01  -0.08  -0.05
  52   1     0.07  -0.05  -0.15    -0.02  -0.01  -0.01     0.03  -0.00  -0.03
  53   1    -0.01   0.14  -0.11    -0.04  -0.02  -0.01     0.03   0.05  -0.02
  54   1     0.01  -0.03   0.04    -0.00  -0.04  -0.02    -0.00   0.03   0.03
  55   1     0.03   0.04   0.08     0.02  -0.03  -0.04    -0.02   0.04   0.06
  56   6     0.05  -0.02  -0.01    -0.37   0.17  -0.00    -0.10  -0.11  -0.01
  57   8    -0.00   0.01   0.02     0.06  -0.04  -0.27     0.01   0.04  -0.07
  58   6    -0.05  -0.02  -0.01     0.38   0.07   0.13    -0.09   0.07   0.09
  59   8     0.00   0.02  -0.00    -0.07  -0.25   0.11     0.01   0.04  -0.07
                     25                     26                     27
                        a                      a                      a 
 Frequencies --   267.9506               295.6855               296.5248
 Red. masses --    12.7145                 8.3004                 8.0896
 Frc consts  --     0.0000                 0.0000                 0.0000
 IR Inten    --     0.1594                 0.3406                 0.1137
 Raman Activ --     0.0000                 0.0000                 0.0000
 Depolar     --     0.0000                 0.0000                 0.0000
 Atom AN      X      Y      Z        X      Y      Z        X      Y      Z
   1  28     0.00   0.16   0.09    -0.11   0.02  -0.04    -0.01   0.07   0.03
   2   7     0.03   0.05  -0.20     0.04  -0.03  -0.01     0.04  -0.04  -0.02
   3   6     0.06  -0.03  -0.05     0.02  -0.09  -0.11     0.03  -0.12  -0.14
   4   7     0.06  -0.06   0.23    -0.01  -0.13   0.03     0.00  -0.17   0.05
   5   6     0.04  -0.10  -0.00    -0.01  -0.01   0.10    -0.01  -0.02   0.12
   6   6    -0.06   0.10   0.02     0.05   0.09   0.13     0.05   0.11   0.16
   7   6    -0.01   0.12   0.08    -0.06   0.05  -0.17    -0.07   0.06  -0.20
   8   6    -0.08  -0.04  -0.11     0.01   0.20  -0.04     0.02   0.24  -0.06
   9   6     0.07  -0.04  -0.07     0.05  -0.09  -0.07     0.06  -0.12  -0.09
  10   6     0.01  -0.07  -0.05    -0.09  -0.11   0.10    -0.09  -0.14   0.12
  11   6    -0.02  -0.04   0.05    -0.05   0.08  -0.10    -0.05   0.08  -0.11
  12   6     0.01   0.08  -0.07     0.07  -0.02   0.11     0.09  -0.03   0.13
  13   1     0.00  -0.05  -0.07     0.01  -0.00   0.00     0.02  -0.00   0.00
  14   1     0.05  -0.07   0.02    -0.02  -0.02   0.05    -0.03  -0.02   0.07
  15   1    -0.02   0.02  -0.02     0.03   0.07   0.07     0.04   0.08   0.09
  16   1    -0.03   0.05  -0.00     0.06  -0.02   0.03     0.07  -0.02   0.04
  17   1    -0.05   0.03   0.07     0.02   0.06  -0.12     0.02   0.07  -0.14
  18   1     0.05   0.05   0.04    -0.06  -0.06  -0.08    -0.07  -0.08  -0.10
  19   1     0.01  -0.07  -0.02    -0.03   0.14  -0.05    -0.03   0.17  -0.06
  20   1    -0.07  -0.02  -0.06     0.05   0.08   0.07     0.06   0.10   0.09
  21   1     0.04  -0.01   0.02     0.02  -0.03   0.02     0.02  -0.04   0.02
  22   1     0.05  -0.03  -0.05     0.02  -0.05  -0.02     0.03  -0.07  -0.03
  23   1    -0.02   0.02  -0.06    -0.00  -0.06   0.07    -0.00  -0.08   0.08
  24   1     0.03  -0.07  -0.04    -0.09  -0.01   0.05    -0.09  -0.02   0.06
  25   1    -0.02  -0.05   0.01     0.03   0.11  -0.02     0.03   0.13  -0.02
  26   1    -0.01   0.00   0.06    -0.05   0.02  -0.12    -0.06   0.02  -0.13
  27   1     0.00   0.02  -0.02     0.01  -0.00   0.11     0.01  -0.01   0.12
  28   1     0.00   0.06  -0.01     0.10  -0.02   0.02     0.11  -0.02   0.02
  29   7    -0.03  -0.14   0.14     0.04   0.03   0.02    -0.04  -0.03  -0.02
  30   6    -0.06  -0.05   0.00     0.03   0.17   0.03    -0.03  -0.15  -0.03
  31   7    -0.05   0.16  -0.17    -0.00   0.05   0.16    -0.00  -0.04  -0.15
  32   6    -0.04  -0.05  -0.08    -0.01  -0.09   0.08     0.01   0.08  -0.07
  33   6     0.06   0.06   0.07     0.05  -0.19  -0.01    -0.04   0.16   0.01
  34   6     0.02   0.13   0.06    -0.07   0.14  -0.15     0.05  -0.12   0.13
  35   6     0.07  -0.12   0.03     0.01  -0.08  -0.23    -0.01   0.06   0.20
  36   6    -0.07  -0.08   0.00     0.06   0.13   0.05    -0.05  -0.12  -0.05
  37   6    -0.01  -0.07  -0.03    -0.10  -0.03   0.18     0.07   0.02  -0.16
  38   6     0.02   0.02  -0.06    -0.06   0.06  -0.14     0.04  -0.05   0.10
  39   6    -0.01  -0.01   0.10     0.08  -0.10   0.09    -0.07   0.08  -0.08
  40   1    -0.01  -0.08  -0.01     0.02  -0.00   0.00    -0.02   0.00  -0.00
  41   1    -0.05  -0.01  -0.07    -0.03  -0.04   0.05     0.02   0.04  -0.04
  42   1     0.02  -0.00   0.03     0.03  -0.12  -0.02    -0.03   0.10   0.02
  43   1     0.03   0.02   0.05     0.07  -0.02   0.04    -0.06   0.02  -0.03
  44   1     0.05   0.07  -0.01     0.03   0.08  -0.14    -0.02  -0.07   0.12
  45   1    -0.05   0.06   0.02    -0.07   0.12   0.01     0.06  -0.10  -0.01
  46   1    -0.01  -0.05  -0.04    -0.03  -0.04  -0.17     0.03   0.03   0.15
  47   1     0.07  -0.06   0.01     0.06  -0.12  -0.04    -0.05   0.11   0.03
  48   1    -0.04   0.02  -0.02     0.02   0.00   0.04    -0.02  -0.00  -0.04
  49   1    -0.05  -0.06   0.00     0.03   0.05   0.04    -0.03  -0.05  -0.04
  50   1     0.02  -0.04   0.05    -0.01  -0.03   0.11     0.00   0.02  -0.09
  51   1    -0.03  -0.07  -0.04    -0.10  -0.04   0.04     0.08   0.03  -0.04
  52   1     0.02  -0.02  -0.05     0.03  -0.05  -0.12    -0.02   0.04   0.10
  53   1     0.01   0.05  -0.03    -0.06   0.11  -0.09     0.05  -0.09   0.07
  54   1    -0.00  -0.01   0.03     0.01  -0.10   0.07    -0.01   0.08  -0.06
  55   1    -0.00   0.02   0.05     0.12  -0.01   0.03    -0.09   0.01  -0.02
  56   6    -0.33   0.15  -0.01     0.07  -0.03  -0.01    -0.02   0.02   0.01
  57   8     0.05  -0.04  -0.25    -0.02   0.01   0.04     0.01  -0.01  -0.01
  58   6     0.34   0.06   0.12     0.06   0.02   0.01     0.04   0.03   0.01
  59   8    -0.06  -0.23   0.10    -0.01  -0.03   0.01    -0.01  -0.02   0.00
                     28                     29                     30
                        a                      a                      a 
 Frequencies --   324.8154               346.8196               346.9867
 Red. masses --    20.0011                10.1570                 9.5026
 Frc consts  --     0.0000                 0.0000                 0.0000
 IR Inten    --     1.9479                 6.6557                 3.4764
 Raman Activ --     0.0000                 0.0000                 0.0000
 Depolar     --     0.0000                 0.0000                 0.0000
 Atom AN      X      Y      Z        X      Y      Z        X      Y      Z
   1  28    -0.25   0.16  -0.28    -0.05   0.05  -0.08    -0.00  -0.03  -0.02
   2   7    -0.04  -0.01  -0.01     0.02  -0.04   0.25     0.04  -0.04   0.25
   3   6    -0.04   0.04   0.02    -0.00  -0.08   0.11     0.02  -0.08   0.11
   4   7    -0.03   0.07  -0.06     0.03  -0.06   0.20     0.04  -0.06   0.20
   5   6    -0.02   0.03  -0.03    -0.01   0.17  -0.00    -0.00   0.15   0.00
   6   6    -0.01  -0.04  -0.04     0.01   0.13  -0.04     0.01   0.12  -0.03
   7   6     0.01  -0.03   0.05     0.16   0.12  -0.16     0.15   0.12  -0.16
   8   6    -0.01  -0.07   0.04     0.13  -0.01  -0.06     0.13   0.01  -0.07
   9   6    -0.01   0.03   0.05     0.06  -0.11  -0.07     0.05  -0.10  -0.08
  10   6    -0.01   0.07   0.03    -0.03  -0.06  -0.06    -0.04  -0.06  -0.07
  11   6     0.01   0.04  -0.02    -0.09  -0.04   0.06    -0.10  -0.05   0.06
  12   6     0.02  -0.02   0.05    -0.22  -0.01  -0.07    -0.23  -0.00  -0.09
  13   1    -0.01   0.01   0.01     0.04   0.07   0.01     0.04   0.07   0.01
  14   1    -0.00   0.02  -0.02    -0.03   0.08  -0.02    -0.03   0.07  -0.01
  15   1    -0.00  -0.02  -0.02    -0.01  -0.01  -0.01    -0.01  -0.00  -0.00
  16   1    -0.01  -0.00  -0.01    -0.02   0.05  -0.01    -0.01   0.05  -0.00
  17   1    -0.00  -0.02   0.03     0.06   0.05  -0.08     0.06   0.05  -0.08
  18   1     0.01   0.02   0.02     0.02   0.01  -0.06     0.01   0.00  -0.06
  19   1     0.00  -0.04   0.03     0.06  -0.01  -0.03     0.05   0.01  -0.04
  20   1    -0.02  -0.03  -0.02     0.00   0.00   0.01     0.01   0.01   0.01
  21   1     0.00   0.02   0.01     0.01  -0.03  -0.04     0.00  -0.03  -0.05
  22   1    -0.00   0.00   0.01     0.00  -0.01  -0.01    -0.00   0.00  -0.01
  23   1     0.01   0.01   0.03    -0.04   0.02  -0.07    -0.04   0.02  -0.08
  24   1    -0.01   0.04   0.02     0.02  -0.08  -0.05     0.02  -0.08  -0.05
  25   1     0.01   0.03  -0.00    -0.04  -0.05   0.01    -0.04  -0.06   0.01
  26   1     0.01   0.00  -0.03    -0.01  -0.01   0.05    -0.02  -0.01   0.05
  27   1     0.00  -0.02   0.05    -0.04   0.04  -0.14    -0.04   0.05  -0.15
  28   1     0.04  -0.00   0.01    -0.20  -0.04  -0.01    -0.21  -0.04  -0.01
  29   7    -0.04   0.02   0.00     0.01  -0.19   0.17    -0.03   0.19  -0.16
  30   6    -0.04  -0.04  -0.03    -0.01  -0.05   0.12    -0.01   0.06  -0.12
  31   7    -0.03   0.02  -0.09     0.02  -0.14   0.15    -0.03   0.14  -0.16
  32   6    -0.02   0.01  -0.04    -0.02  -0.08  -0.15     0.01   0.08   0.13
  33   6    -0.00   0.05   0.01     0.01  -0.03  -0.13    -0.01   0.04   0.13
  34   6     0.01  -0.03   0.05     0.16   0.07  -0.19    -0.15  -0.07   0.19
  35   6    -0.00   0.00   0.08     0.14   0.05  -0.02    -0.13  -0.05   0.04
  36   6    -0.02  -0.06  -0.00     0.06   0.12   0.06    -0.05  -0.12  -0.04
  37   6    -0.01  -0.06  -0.05    -0.03   0.08   0.01     0.04  -0.09  -0.01
  38   6     0.01  -0.00  -0.04    -0.09  -0.03   0.07     0.10   0.02  -0.07
  39   6     0.02  -0.04   0.04    -0.22   0.07  -0.02     0.23  -0.08   0.04
  40   1    -0.01  -0.01  -0.00     0.04  -0.05  -0.06    -0.04   0.05   0.05
  41   1    -0.00   0.01  -0.02    -0.03  -0.02  -0.07     0.03   0.02   0.07
  42   1    -0.00   0.02   0.01    -0.01   0.01   0.00     0.00  -0.01  -0.00
  43   1    -0.01   0.01  -0.00    -0.02  -0.02  -0.05     0.01   0.02   0.04
  44   1    -0.00  -0.01   0.03     0.07   0.04  -0.08    -0.06  -0.04   0.08
  45   1     0.01  -0.03  -0.00     0.02   0.05  -0.04    -0.01  -0.05   0.04
  46   1     0.00   0.00   0.05     0.06   0.03  -0.01    -0.05  -0.03   0.03
  47   1    -0.01   0.03   0.01     0.00  -0.01   0.00    -0.01   0.02   0.00
  48   1     0.00  -0.02  -0.01     0.02   0.05   0.00    -0.01  -0.06   0.00
  49   1    -0.00  -0.01   0.01     0.00   0.01   0.00     0.00  -0.01   0.01
  50   1     0.01  -0.03   0.01    -0.04   0.05  -0.06     0.04  -0.05   0.06
  51   1    -0.01  -0.04  -0.02     0.02   0.08   0.04    -0.02  -0.09  -0.04
  52   1     0.01  -0.02  -0.03    -0.04   0.02   0.05     0.04  -0.03  -0.06
  53   1     0.01   0.02  -0.02    -0.01  -0.03   0.04     0.02   0.04  -0.04
  54   1     0.00  -0.03   0.04    -0.04   0.10  -0.11     0.04  -0.10   0.12
  55   1     0.04  -0.01   0.01    -0.19   0.03   0.03     0.20  -0.04  -0.03
  56   6     0.47  -0.20  -0.03     0.08  -0.06  -0.00     0.04  -0.02   0.01
  57   8    -0.07   0.06   0.29    -0.01   0.02   0.05     0.00   0.01   0.03
  58   6     0.48   0.12   0.14     0.08   0.03   0.05    -0.03  -0.00  -0.02
  59   8    -0.08  -0.28   0.11    -0.02  -0.05   0.01    -0.00   0.03  -0.01
                     31                     32                     33
                        a                      a                      a 
 Frequencies --   366.1725               366.7595               387.7606
 Red. masses --     8.9221                 9.2675                 9.3973
 Frc consts  --     0.0000                 0.0000                 0.0000
 IR Inten    --     1.1710                 8.0681                 2.5408
 Raman Activ --     0.0000                 0.0000                 0.0000
 Depolar     --     0.0000                 0.0000                 0.0000
 Atom AN      X      Y      Z        X      Y      Z        X      Y      Z
   1  28     0.02  -0.01   0.01     0.06  -0.03   0.05    -0.03   0.01  -0.02
   2   7     0.11   0.01   0.10    -0.22  -0.01  -0.23     0.10   0.07   0.09
   3   6     0.08   0.01  -0.01    -0.16  -0.01  -0.00     0.07   0.00  -0.02
   4   7     0.06  -0.02  -0.05    -0.12   0.04   0.11    -0.07  -0.09  -0.23
   5   6     0.08  -0.12   0.04    -0.15   0.21  -0.09    -0.08   0.10   0.14
   6   6     0.01  -0.06   0.06    -0.01   0.11  -0.11    -0.21   0.02   0.10
   7   6    -0.11  -0.06   0.05     0.20   0.12  -0.09    -0.00   0.04   0.06
   8   6    -0.06   0.13  -0.03     0.11  -0.25   0.07    -0.03  -0.02  -0.08
   9   6    -0.12   0.08  -0.07     0.23  -0.16   0.15     0.14  -0.02  -0.02
  10   6     0.01  -0.00  -0.04    -0.03   0.00   0.08     0.02  -0.10  -0.01
  11   6     0.00  -0.01   0.02     0.01   0.03  -0.06     0.03  -0.05  -0.02
  12   6    -0.03   0.04  -0.06     0.07  -0.07   0.12     0.09   0.04  -0.05
  13   1     0.00  -0.05  -0.01    -0.01   0.08  -0.00     0.02   0.06   0.08
  14   1     0.03  -0.05   0.02    -0.05   0.08  -0.05    -0.09   0.06   0.04
  15   1     0.01   0.02   0.01    -0.02  -0.04  -0.01    -0.09  -0.06  -0.05
  16   1     0.02  -0.04   0.02    -0.03   0.07  -0.04    -0.15   0.04   0.08
  17   1    -0.03  -0.02   0.02     0.06   0.04  -0.04    -0.02   0.00   0.04
  18   1    -0.01  -0.03   0.02     0.02   0.05  -0.03     0.04  -0.00   0.03
  19   1    -0.03   0.10  -0.04     0.06  -0.18   0.07     0.01  -0.05  -0.00
  20   1     0.05   0.05   0.03    -0.09  -0.09  -0.05    -0.04  -0.01  -0.05
  21   1    -0.07  -0.02  -0.04     0.14   0.04   0.09     0.06   0.01   0.04
  22   1    -0.05   0.08  -0.02     0.11  -0.15   0.03     0.07  -0.02  -0.04
  23   1    -0.01  -0.00  -0.02     0.02   0.00   0.05     0.02  -0.05   0.02
  24   1     0.02  -0.00  -0.02    -0.04   0.01   0.03     0.00   0.01   0.01
  25   1    -0.01  -0.04   0.00     0.02   0.07  -0.01     0.01  -0.03  -0.01
  26   1     0.00   0.00   0.04    -0.01  -0.00  -0.08    -0.02   0.00   0.02
  27   1     0.00   0.04  -0.08    -0.00  -0.08   0.17     0.03   0.02  -0.03
  28   1    -0.07  -0.01  -0.01     0.17   0.01   0.02     0.01  -0.00  -0.01
  29   7    -0.22   0.21  -0.10    -0.11   0.12  -0.06     0.14  -0.17  -0.01
  30   6    -0.16   0.01   0.01    -0.08   0.01   0.00     0.10   0.02  -0.02
  31   7    -0.13  -0.10   0.03    -0.06  -0.06   0.01    -0.08   0.33  -0.06
  32   6    -0.16  -0.04  -0.23    -0.07  -0.01  -0.10    -0.11  -0.23  -0.01
  33   6    -0.02   0.04  -0.16    -0.00   0.02  -0.08    -0.29  -0.13   0.05
  34   6     0.20   0.01  -0.15     0.10   0.01  -0.07    -0.01  -0.10   0.00
  35   6     0.12   0.07   0.25     0.05   0.03   0.12    -0.03   0.11  -0.04
  36   6     0.23  -0.05   0.21     0.11  -0.03   0.10     0.19   0.03   0.00
  37   6    -0.03  -0.07   0.04    -0.01  -0.04   0.02     0.03   0.08   0.10
  38   6     0.00   0.03  -0.05     0.01   0.02  -0.03     0.04   0.05   0.04
  39   6     0.06  -0.07   0.13     0.04  -0.03   0.06     0.12   0.03  -0.08
  40   1    -0.02  -0.05  -0.07    -0.01  -0.01  -0.03     0.02  -0.14  -0.01
  41   1    -0.06  -0.00  -0.10    -0.02   0.00  -0.04    -0.13  -0.09  -0.05
  42   1    -0.02   0.03   0.03    -0.01   0.01   0.01    -0.12   0.10   0.04
  43   1    -0.03  -0.00  -0.08    -0.01   0.00  -0.04    -0.21  -0.12   0.01
  44   1     0.06   0.01  -0.05     0.03   0.00  -0.02    -0.03  -0.05   0.03
  45   1     0.02   0.00  -0.06     0.01   0.00  -0.03     0.06  -0.04   0.02
  46   1     0.07   0.03   0.20     0.03   0.02   0.09     0.01   0.04   0.05
  47   1    -0.09   0.09   0.06    -0.04   0.04   0.03    -0.06   0.07  -0.02
  48   1     0.14  -0.10   0.01     0.07  -0.05   0.01     0.08  -0.05   0.02
  49   1     0.11   0.05   0.14     0.06   0.03   0.07     0.10   0.05  -0.01
  50   1     0.02  -0.04   0.02     0.01  -0.02   0.01     0.03   0.01   0.07
  51   1    -0.04  -0.03   0.01    -0.02  -0.02   0.00     0.00  -0.02  -0.00
  52   1     0.02  -0.04  -0.07     0.01  -0.02  -0.03     0.02   0.03   0.03
  53   1    -0.01   0.07  -0.04    -0.00   0.04  -0.02    -0.02  -0.02   0.01
  54   1    -0.01  -0.09   0.15    -0.00  -0.05   0.09     0.04   0.02  -0.05
  55   1     0.16  -0.03  -0.00     0.09  -0.02  -0.00     0.01   0.02  -0.01
  56   6    -0.06   0.01   0.01    -0.08   0.02   0.00    -0.00  -0.00   0.00
  57   8     0.00  -0.00  -0.03     0.00  -0.01  -0.04    -0.00   0.00   0.00
  58   6     0.01   0.00  -0.01    -0.10  -0.02  -0.01     0.00   0.00   0.01
  59   8     0.00   0.00   0.00     0.01   0.05  -0.02    -0.00  -0.01   0.00
                     34                     35                     36
                        a                      a                      a 
 Frequencies --   388.7628               426.5513               428.2839
 Red. masses --     9.4328                17.6628                 8.7336
 Frc consts  --     0.0000                 0.0000                 0.0000
 IR Inten    --     0.1548                 2.8564                 7.7392
 Raman Activ --     0.0000                 0.0000                 0.0000
 Depolar     --     0.0000                 0.0000                 0.0000
 Atom AN      X      Y      Z        X      Y      Z        X      Y      Z
   1  28     0.00  -0.01   0.00    -0.01  -0.33  -0.18     0.02   0.01  -0.05
   2   7    -0.15  -0.10  -0.14    -0.04   0.02   0.10    -0.07  -0.00   0.17
   3   6    -0.10  -0.00   0.02    -0.06   0.10   0.03    -0.09   0.15   0.04
   4   7     0.09   0.13   0.31    -0.10   0.07   0.05    -0.14   0.12   0.09
   5   6     0.10  -0.13  -0.20    -0.09  -0.13  -0.01    -0.13  -0.19  -0.01
   6   6     0.29  -0.03  -0.14    -0.02   0.03   0.06    -0.02   0.03   0.08
   7   6     0.01  -0.04  -0.09     0.01   0.02  -0.03     0.02   0.02  -0.04
   8   6     0.04   0.02   0.11     0.02   0.05  -0.09     0.03   0.08  -0.13
   9   6    -0.19   0.02   0.03     0.10   0.06  -0.03     0.14   0.09  -0.05
  10   6    -0.03   0.13   0.02     0.02   0.03   0.00     0.02   0.07   0.00
  11   6    -0.04   0.07   0.02     0.06  -0.10  -0.03     0.08  -0.15  -0.04
  12   6    -0.12  -0.05   0.07     0.05  -0.08  -0.04     0.06  -0.14  -0.05
  13   1    -0.03  -0.08  -0.11    -0.08  -0.08  -0.07    -0.11  -0.12  -0.11
  14   1     0.12  -0.09  -0.05     0.04  -0.11   0.04     0.06  -0.16   0.06
  15   1     0.13   0.08   0.07     0.00   0.01   0.04     0.00   0.02   0.07
  16   1     0.20  -0.06  -0.11     0.02   0.01  -0.01     0.03   0.01  -0.01
  17   1     0.03  -0.00  -0.06     0.00   0.02  -0.02     0.00   0.02  -0.02
  18   1    -0.06   0.00  -0.04     0.02  -0.02  -0.01     0.03  -0.03  -0.02
  19   1    -0.01   0.06   0.01     0.00   0.01  -0.02     0.00   0.02  -0.03
  20   1     0.06   0.01   0.06     0.01   0.01  -0.03     0.02   0.02  -0.04
  21   1    -0.07  -0.00  -0.05     0.07   0.06   0.03     0.11   0.09   0.05
  22   1    -0.10   0.02   0.05     0.08  -0.04  -0.04     0.11  -0.06  -0.06
  23   1    -0.02   0.07  -0.03     0.03   0.03  -0.00     0.04   0.05  -0.00
  24   1    -0.00  -0.01  -0.02     0.01   0.01  -0.00     0.02   0.02  -0.00
  25   1    -0.02   0.05   0.01     0.01  -0.06  -0.01     0.01  -0.08  -0.02
  26   1     0.02  -0.00  -0.02     0.03  -0.03   0.02     0.05  -0.04   0.03
  27   1    -0.04  -0.03   0.04     0.01  -0.03  -0.01     0.02  -0.05  -0.02
  28   1    -0.00   0.01   0.02     0.01  -0.04  -0.01     0.01  -0.07  -0.02
  29   7     0.11  -0.13  -0.00     0.05   0.09  -0.04    -0.08  -0.16   0.10
  30   6     0.08   0.01  -0.01     0.06   0.07   0.07    -0.11  -0.13  -0.12
  31   7    -0.05   0.25  -0.04     0.10   0.08   0.03    -0.17  -0.15  -0.07
  32   6    -0.08  -0.17  -0.01     0.09  -0.07  -0.11    -0.13   0.13   0.17
  33   6    -0.21  -0.09   0.04     0.02   0.06  -0.01    -0.03  -0.10   0.02
  34   6    -0.01  -0.07   0.01    -0.01  -0.02   0.03     0.02   0.03  -0.05
  35   6    -0.03   0.08  -0.03    -0.02  -0.04   0.09     0.03   0.07  -0.15
  36   6     0.14   0.03  -0.00    -0.10   0.01   0.07     0.16  -0.00  -0.11
  37   6     0.03   0.06   0.07    -0.02   0.02   0.02     0.02  -0.04  -0.06
  38   6     0.03   0.04   0.03    -0.06  -0.08  -0.07     0.09   0.13   0.12
  39   6     0.09   0.02  -0.06    -0.05  -0.08  -0.05     0.07   0.13   0.11
  40   1     0.02  -0.10  -0.01     0.07  -0.11  -0.03    -0.12   0.18   0.05
  41   1    -0.09  -0.06  -0.03    -0.04  -0.02  -0.11     0.07   0.04   0.18
  42   1    -0.09   0.08   0.03     0.00   0.04  -0.01     0.00  -0.07   0.02
  43   1    -0.15  -0.09   0.01    -0.02   0.00   0.01     0.03   0.00  -0.01
  44   1    -0.02  -0.04   0.02    -0.00  -0.00   0.02     0.00   0.01  -0.03
  45   1     0.04  -0.03   0.02    -0.02  -0.02  -0.01     0.03   0.03   0.02
  46   1     0.01   0.03   0.03    -0.00  -0.01   0.02     0.00   0.02  -0.04
  47   1    -0.04   0.05  -0.02    -0.01  -0.02   0.03     0.02   0.02  -0.04
  48   1     0.05  -0.03   0.02    -0.07   0.06   0.03     0.12  -0.10  -0.06
  49   1     0.07   0.04  -0.01    -0.08  -0.05  -0.01     0.12   0.09   0.02
  50   1     0.02   0.01   0.05    -0.03   0.02   0.03     0.04  -0.03  -0.05
  51   1     0.00  -0.02  -0.00    -0.01   0.00   0.01     0.02  -0.01  -0.02
  52   1     0.02   0.02   0.02    -0.01  -0.04  -0.04     0.02   0.07   0.07
  53   1    -0.02  -0.02   0.01    -0.03   0.00  -0.03     0.05   0.00   0.06
  54   1     0.03   0.01  -0.04    -0.02  -0.03  -0.02     0.02   0.05   0.03
  55   1    -0.00   0.01  -0.00    -0.01  -0.03  -0.03     0.01   0.06   0.05
  56   6    -0.02   0.03   0.00    -0.02   0.35   0.23    -0.01  -0.01   0.02
  57   8    -0.00  -0.01  -0.01     0.07  -0.12   0.21    -0.00   0.00   0.02
  58   6     0.02   0.02   0.02     0.03   0.38   0.17     0.00   0.02   0.03
  59   8     0.00  -0.01  -0.00    -0.07   0.12  -0.21    -0.01  -0.01  -0.01
                     37                     38                     39
                        a                      a                      a 
 Frequencies --   430.2293               465.7404               468.9875
 Red. masses --    13.6790                 8.4325                 8.4114
 Frc consts  --     0.0000                 0.0000                 0.0000
 IR Inten    --    17.4737                 1.0380                 2.8091
 Raman Activ --     0.0000                 0.0000                 0.0000
 Depolar     --     0.0000                 0.0000                 0.0000
 Atom AN      X      Y      Z        X      Y      Z        X      Y      Z
   1  28     0.01   0.24   0.13    -0.02  -0.02   0.03     0.00   0.04   0.02
   2   7    -0.06  -0.01   0.16     0.13  -0.02  -0.07     0.12  -0.01  -0.06
   3   6    -0.09   0.14   0.04     0.15   0.11   0.19     0.15   0.10   0.18
   4   7    -0.13   0.12   0.07    -0.03  -0.05   0.06    -0.04  -0.05   0.06
   5   6    -0.11  -0.16  -0.01    -0.05   0.02  -0.03    -0.06   0.01  -0.03
   6   6    -0.02   0.03   0.07     0.02   0.04  -0.03     0.02   0.03  -0.03
   7   6     0.02   0.02  -0.04     0.06   0.04  -0.07     0.06   0.04  -0.07
   8   6     0.03   0.07  -0.12     0.05  -0.02   0.04     0.05  -0.02   0.04
   9   6     0.12   0.07  -0.05    -0.06   0.22   0.04    -0.06   0.21   0.04
  10   6     0.01   0.07   0.00    -0.19  -0.07   0.04    -0.17  -0.08   0.04
  11   6     0.06  -0.13  -0.04    -0.16  -0.23  -0.11    -0.14  -0.22  -0.10
  12   6     0.05  -0.13  -0.03     0.16  -0.05  -0.06     0.17  -0.04  -0.06
  13   1    -0.10  -0.11  -0.10     0.02   0.03   0.01     0.01   0.02   0.00
  14   1     0.05  -0.14   0.05    -0.04   0.03  -0.02    -0.05   0.03  -0.02
  15   1     0.00   0.02   0.06     0.01   0.00   0.01     0.01   0.00   0.02
  16   1     0.03   0.01  -0.01     0.02   0.02  -0.02     0.02   0.01  -0.02
  17   1     0.00   0.02  -0.02     0.04   0.02  -0.06     0.04   0.02  -0.06
  18   1     0.02  -0.03  -0.01    -0.03  -0.01  -0.04    -0.03  -0.01  -0.04
  19   1     0.00   0.02  -0.03     0.02  -0.06   0.05     0.02  -0.06   0.05
  20   1     0.02   0.02  -0.03    -0.02  -0.02  -0.05    -0.02  -0.02  -0.05
  21   1     0.10   0.08   0.05    -0.10  -0.00  -0.10    -0.10  -0.01  -0.10
  22   1     0.10  -0.06  -0.05    -0.09   0.20   0.04    -0.09   0.19   0.04
  23   1     0.03   0.05  -0.00     0.01  -0.03   0.07     0.01  -0.04   0.07
  24   1     0.01   0.02  -0.00    -0.12   0.01   0.04    -0.11   0.01   0.04
  25   1     0.01  -0.07  -0.01    -0.07  -0.14  -0.04    -0.07  -0.13  -0.04
  26   1     0.04  -0.04   0.02    -0.05  -0.05   0.06    -0.05  -0.04   0.06
  27   1     0.01  -0.04  -0.01     0.03   0.02   0.08     0.03   0.02   0.08
  28   1     0.01  -0.07  -0.01     0.13  -0.03  -0.03     0.14  -0.03  -0.03
  29   7     0.06   0.11  -0.09     0.13   0.06  -0.02    -0.13  -0.06   0.03
  30   6     0.08   0.09   0.08     0.14  -0.22   0.01    -0.15   0.22  -0.01
  31   7     0.11   0.10   0.05    -0.03  -0.02   0.07     0.04   0.02  -0.08
  32   6     0.09  -0.09  -0.12    -0.05   0.02  -0.03     0.06  -0.02   0.03
  33   6     0.02   0.07  -0.01     0.02   0.01  -0.05    -0.02  -0.01   0.05
  34   6    -0.02  -0.02   0.03     0.06   0.04  -0.07    -0.06  -0.04   0.07
  35   6    -0.02  -0.05   0.11     0.05  -0.02   0.03    -0.05   0.03  -0.03
  36   6    -0.11   0.00   0.08    -0.07  -0.14  -0.16     0.07   0.15   0.16
  37   6    -0.01   0.03   0.05    -0.18   0.01   0.08     0.17  -0.01  -0.10
  38   6    -0.06  -0.08  -0.08    -0.15   0.21   0.13     0.14  -0.22  -0.14
  39   6    -0.04  -0.08  -0.09     0.16   0.07   0.00    -0.18  -0.07  -0.01
  40   1     0.08  -0.12  -0.04     0.02  -0.02  -0.02    -0.01   0.02   0.02
  41   1    -0.05  -0.02  -0.12    -0.04   0.00  -0.04     0.05  -0.00   0.03
  42   1    -0.00   0.05  -0.02     0.01  -0.01   0.01    -0.01   0.02  -0.01
  43   1    -0.02  -0.00   0.01     0.02   0.01  -0.02    -0.02  -0.01   0.03
  44   1    -0.00  -0.00   0.02     0.04   0.04  -0.05    -0.05  -0.04   0.05
  45   1    -0.02  -0.02  -0.02    -0.03   0.04  -0.01     0.03  -0.04   0.01
  46   1    -0.00  -0.01   0.03     0.02  -0.01   0.07    -0.02   0.01  -0.08
  47   1    -0.01  -0.02   0.03    -0.02   0.05  -0.01     0.02  -0.06   0.01
  48   1    -0.08   0.07   0.04    -0.09   0.09  -0.05     0.10  -0.09   0.05
  49   1    -0.09  -0.06  -0.02    -0.09  -0.13  -0.14     0.09   0.14   0.15
  50   1    -0.03   0.02   0.04     0.00  -0.04   0.07    -0.01   0.04  -0.07
  51   1    -0.01   0.01   0.02    -0.12  -0.03   0.01     0.11   0.03  -0.01
  52   1    -0.01  -0.04  -0.04    -0.07   0.11   0.10     0.06  -0.11  -0.10
  53   1    -0.04  -0.00  -0.04    -0.05  -0.03   0.07     0.05   0.03  -0.07
  54   1    -0.01  -0.03  -0.03     0.02  -0.08   0.02    -0.03   0.08  -0.03
  55   1    -0.01  -0.04  -0.04     0.13   0.04   0.01    -0.14  -0.04  -0.00
  56   6     0.05  -0.31  -0.17     0.02   0.01  -0.02    -0.00   0.03  -0.02
  57   8    -0.05   0.10  -0.13    -0.01   0.00  -0.02    -0.01  -0.01  -0.03
  58   6    -0.06  -0.31  -0.16     0.02   0.01  -0.02     0.00  -0.00   0.04
  59   8     0.05  -0.06   0.15    -0.01   0.01  -0.01     0.01  -0.03   0.01
                     40                     41                     42
                        a                      a                      a 
 Frequencies --   483.5152               498.7186               501.2522
 Red. masses --    12.8373                10.9034                 9.3670
 Frc consts  --     0.0000                 0.0000                 0.0000
 IR Inten    --     1.2561                 0.5364                 1.1673
 Raman Activ --     0.0000                 0.0000                 0.0000
 Depolar     --     0.0000                 0.0000                 0.0000
 Atom AN      X      Y      Z        X      Y      Z        X      Y      Z
   1  28    -0.00  -0.05  -0.02    -0.02  -0.07   0.14     0.00   0.03   0.01
   2   7     0.01  -0.03  -0.03     0.03  -0.21  -0.05     0.03  -0.22  -0.07
   3   6     0.01   0.01  -0.01     0.03  -0.00  -0.04     0.03  -0.00  -0.03
   4   7     0.02   0.02   0.01     0.16   0.13  -0.11     0.17   0.13  -0.12
   5   6     0.02   0.02   0.01     0.24  -0.03   0.12     0.26  -0.04   0.13
   6   6     0.00  -0.00  -0.01    -0.07   0.04   0.08    -0.07   0.05   0.08
   7   6     0.00  -0.00   0.00     0.04   0.03  -0.03     0.04   0.04  -0.04
   8   6    -0.00  -0.00  -0.00     0.02  -0.02  -0.02     0.02  -0.02  -0.01
   9   6     0.00   0.02   0.01     0.04   0.01   0.01     0.03   0.01   0.01
  10   6    -0.03   0.03   0.00    -0.12   0.23  -0.02    -0.12   0.22  -0.02
  11   6    -0.04  -0.02  -0.01    -0.15  -0.02  -0.02    -0.15  -0.03  -0.03
  12   6     0.00  -0.01   0.00    -0.13  -0.15   0.08    -0.12  -0.15   0.08
  13   1     0.01   0.01   0.01     0.03  -0.04  -0.02     0.03  -0.05  -0.02
  14   1     0.00   0.01  -0.00     0.09  -0.05   0.07     0.10  -0.06   0.08
  15   1    -0.00  -0.00  -0.01    -0.06  -0.06  -0.12    -0.07  -0.06  -0.13
  16   1    -0.01  -0.00   0.00    -0.15   0.05   0.10    -0.16   0.05   0.11
  17   1     0.00  -0.00   0.00     0.03   0.03  -0.05     0.04   0.04  -0.06
  18   1     0.00   0.00   0.00    -0.02  -0.04  -0.03    -0.03  -0.04  -0.04
  19   1     0.00  -0.01   0.00     0.02  -0.04   0.01     0.02  -0.05   0.01
  20   1    -0.00  -0.00  -0.01    -0.03  -0.01  -0.03    -0.03  -0.02  -0.03
  21   1     0.00   0.00   0.01     0.04   0.02   0.03     0.02   0.02   0.02
  22   1     0.01  -0.00  -0.00     0.03  -0.04  -0.01     0.02  -0.03  -0.00
  23   1    -0.00   0.00   0.01    -0.03   0.02   0.03    -0.03   0.01   0.04
  24   1    -0.02   0.01   0.01    -0.07   0.10   0.01    -0.07   0.10   0.02
  25   1    -0.02  -0.01  -0.00    -0.09  -0.01   0.00    -0.09  -0.01  -0.00
  26   1    -0.00  -0.01   0.01     0.04  -0.04  -0.00     0.04  -0.04  -0.00
  27   1    -0.00   0.00   0.02    -0.04  -0.01   0.05    -0.04  -0.00   0.05
  28   1     0.02  -0.00  -0.00    -0.02  -0.04   0.02    -0.01  -0.04   0.02
  29   7    -0.01  -0.04  -0.00     0.03   0.16   0.15    -0.03  -0.17  -0.15
  30   6    -0.01  -0.00   0.02     0.03   0.03  -0.02    -0.03  -0.03   0.01
  31   7    -0.01   0.02   0.01     0.16   0.02  -0.17    -0.17  -0.03   0.17
  32   6    -0.01   0.01   0.01     0.24  -0.10   0.09    -0.25   0.10  -0.10
  33   6    -0.01  -0.01   0.00    -0.07  -0.08   0.01     0.07   0.09  -0.00
  34   6    -0.00   0.00  -0.00     0.04   0.01  -0.04    -0.04  -0.01   0.06
  35   6     0.00  -0.00  -0.00     0.02   0.03   0.00    -0.02  -0.02  -0.01
  36   6    -0.00   0.01   0.01     0.04  -0.01  -0.00    -0.03   0.02   0.01
  37   6     0.03   0.01   0.01    -0.12  -0.10  -0.20     0.12   0.09   0.20
  38   6     0.03  -0.02  -0.01    -0.15   0.03   0.01     0.15  -0.04  -0.01
  39   6    -0.01  -0.00  -0.01    -0.13   0.01   0.17     0.12  -0.02  -0.17
  40   1    -0.01   0.01   0.00     0.03   0.04   0.03    -0.03  -0.04  -0.03
  41   1    -0.00   0.00   0.01     0.09  -0.03   0.08    -0.10   0.04  -0.09
  42   1    -0.00  -0.01   0.00    -0.06   0.13  -0.01     0.06  -0.14   0.01
  43   1     0.00   0.00  -0.00    -0.15  -0.11   0.02     0.16   0.12  -0.01
  44   1    -0.00   0.00  -0.00     0.03   0.02  -0.06    -0.04  -0.03   0.07
  45   1    -0.00   0.00   0.00    -0.02   0.04   0.02     0.02  -0.06  -0.02
  46   1    -0.00  -0.00  -0.01     0.02   0.01   0.04    -0.02  -0.01  -0.05
  47   1     0.00  -0.01   0.00    -0.02   0.03  -0.01     0.03  -0.04   0.00
  48   1    -0.00   0.01  -0.00     0.04  -0.04  -0.01    -0.02   0.03   0.01
  49   1    -0.00  -0.00   0.00     0.04   0.03   0.03    -0.02  -0.02  -0.02
  50   1     0.00   0.01  -0.01    -0.03  -0.04   0.00     0.03   0.04  -0.01
  51   1     0.02   0.01   0.01    -0.07  -0.06  -0.07     0.08   0.06   0.07
  52   1     0.02  -0.01  -0.01    -0.09   0.01   0.01     0.09  -0.01  -0.01
  53   1     0.00   0.00  -0.01     0.04   0.02   0.03    -0.04  -0.02  -0.03
  54   1     0.00   0.01  -0.00    -0.04  -0.03   0.03     0.04   0.04  -0.03
  55   1    -0.02  -0.00   0.00    -0.02   0.01   0.05     0.01  -0.01  -0.05
  56   6    -0.32  -0.40   0.37     0.04  -0.01  -0.12     0.01   0.06  -0.01
  57   8     0.19   0.11   0.20    -0.05   0.01  -0.09    -0.01  -0.02  -0.01
  58   6     0.32   0.10  -0.54     0.03   0.10  -0.04    -0.01   0.02   0.06
  59   8    -0.19   0.24  -0.02    -0.04   0.07  -0.06     0.01  -0.02  -0.01
                     43                     44                     45
                        a                      a                      a 
 Frequencies --   519.6915               521.2977               527.1998
 Red. masses --     9.0453                 6.5008                23.1544
 Frc consts  --     0.0000                 0.0000                 0.0000
 IR Inten    --     6.7211                 0.5990                 6.6038
 Raman Activ --     0.0000                 0.0000                 0.0000
 Depolar     --     0.0000                 0.0000                 0.0000
 Atom AN      X      Y      Z        X      Y      Z        X      Y      Z
   1  28    -0.02  -0.10   0.18    -0.00   0.01   0.02     0.02   0.24  -0.43
   2   7     0.05  -0.04   0.05     0.06  -0.09   0.04     0.02  -0.07  -0.01
   3   6     0.02   0.02  -0.03     0.03   0.02  -0.04     0.02  -0.00  -0.03
   4   7     0.02   0.03   0.10     0.06   0.05   0.10     0.07   0.04   0.02
   5   6    -0.02   0.15  -0.06     0.03   0.17  -0.05     0.09   0.06   0.01
   6   6     0.09  -0.10  -0.11     0.10  -0.12  -0.12     0.03  -0.03  -0.03
   7   6    -0.09  -0.08   0.12    -0.11  -0.08   0.13    -0.03  -0.02   0.04
   8   6    -0.08   0.09  -0.09    -0.09   0.10  -0.11    -0.03   0.03  -0.04
[...]
   6   6     0.06   0.05   0.06     0.00   0.00   0.00    -0.01   0.00   0.00
   7   6     0.07   0.05  -0.06     0.00   0.00  -0.00     0.01   0.01  -0.01
   8   6    -0.03  -0.12  -0.02    -0.00  -0.00  -0.00     0.00  -0.01   0.00
   9   6    -0.11  -0.05  -0.10    -0.00  -0.00  -0.00    -0.01  -0.00  -0.01
  10   6     0.00  -0.00  -0.00    -0.00   0.00  -0.00    -0.00   0.00  -0.01
  11   6    -0.00   0.00  -0.01    -0.00   0.00  -0.01     0.00   0.04  -0.06
  12   6     0.02   0.00  -0.00     0.00   0.00  -0.00    -0.20   0.00  -0.02
  13   1    -0.03   0.07  -0.02    -0.00   0.00  -0.00     0.02  -0.03   0.01
  14   1    -0.01  -0.02  -0.01    -0.00  -0.00  -0.00     0.00   0.01   0.01
  15   1    -0.00   0.01   0.01     0.01  -0.00  -0.00     0.03  -0.01  -0.01
  16   1    -0.23  -0.19  -0.24    -0.01  -0.01  -0.01    -0.01  -0.01  -0.01
  17   1    -0.14  -0.12  -0.17    -0.01  -0.01  -0.01    -0.02  -0.02  -0.02
  18   1    -0.11  -0.08   0.40    -0.00  -0.00   0.02    -0.01  -0.01   0.05
  19   1     0.13   0.09   0.13     0.00   0.00   0.00    -0.01  -0.01  -0.00
  20   1    -0.01   0.35  -0.09    -0.00   0.01  -0.00    -0.00   0.03  -0.01
  21   1    -0.05   0.02  -0.01     0.00  -0.00  -0.00    -0.00  -0.00  -0.00
  22   1     0.44   0.13   0.38     0.01   0.00   0.01     0.03   0.01   0.03
  23   1    -0.00   0.00   0.00    -0.00   0.00   0.00    -0.00   0.00   0.00
  24   1     0.00   0.00  -0.00     0.00  -0.00   0.00     0.00  -0.01   0.02
  25   1     0.00  -0.01   0.03     0.00  -0.00   0.02     0.03  -0.03   0.18
  26   1    -0.00  -0.00  -0.00    -0.00  -0.00  -0.00    -0.05  -0.12   0.02
  27   1    -0.09   0.00  -0.02    -0.02   0.00  -0.00     0.77  -0.01   0.16
  28   1     0.01  -0.00   0.02     0.00  -0.00   0.00    -0.04   0.02  -0.11
  29   7    -0.00   0.00   0.00    -0.00  -0.00   0.00    -0.00   0.00   0.00
  30   6     0.00   0.00   0.00     0.01  -0.00  -0.00     0.00   0.00  -0.00
  31   7    -0.00   0.00  -0.00    -0.00  -0.00  -0.00     0.00  -0.00  -0.00
  32   6     0.00   0.00   0.00    -0.01   0.00  -0.02    -0.00   0.00  -0.01
  33   6     0.00  -0.00  -0.00    -0.06   0.08   0.01    -0.01  -0.00  -0.00
  34   6     0.00   0.00  -0.00    -0.07  -0.02   0.08     0.00   0.00  -0.00
  35   6    -0.00   0.00   0.00     0.03  -0.08  -0.09    -0.00   0.00   0.00
  36   6    -0.00   0.01  -0.00     0.11  -0.12   0.02    -0.00   0.00  -0.00
  37   6     0.00  -0.00   0.00    -0.00  -0.00  -0.00     0.00   0.00  -0.00
  38   6     0.00  -0.00   0.01     0.00  -0.00   0.00    -0.00   0.02  -0.04
  39   6    -0.00  -0.00   0.00    -0.02   0.00   0.00    -0.12   0.01  -0.01
  40   1    -0.00  -0.00  -0.00     0.03   0.02   0.07     0.01   0.01   0.02
  41   1    -0.00   0.00   0.00     0.00  -0.02  -0.01     0.00  -0.01  -0.00
  42   1    -0.01  -0.00  -0.00     0.01   0.02   0.00     0.03   0.01   0.00
  43   1    -0.01   0.01   0.00     0.22  -0.32  -0.04    -0.00   0.00  -0.00
  44   1    -0.00   0.00   0.00     0.14  -0.21  -0.01    -0.01   0.01   0.00
  45   1    -0.00  -0.01   0.01     0.11   0.29  -0.28    -0.01  -0.02   0.02
  46   1     0.00  -0.00  -0.00    -0.12   0.16   0.01     0.00  -0.00   0.00
  47   1    -0.00  -0.00  -0.01     0.02   0.11   0.34    -0.00  -0.00  -0.01
  48   1    -0.00  -0.00  -0.00     0.05   0.00   0.02    -0.00   0.00  -0.00
  49   1     0.02  -0.02   0.00    -0.43   0.41  -0.09     0.01  -0.01   0.00
  50   1     0.00  -0.00   0.00     0.00   0.00  -0.00    -0.00  -0.00  -0.00
  51   1    -0.00   0.00  -0.00     0.00  -0.00   0.00     0.00  -0.01   0.01
  52   1    -0.00   0.02  -0.02    -0.00   0.01  -0.01     0.02  -0.09   0.08
  53   1     0.00  -0.00  -0.00    -0.00  -0.00   0.00    -0.03   0.03   0.07
  54   1     0.01  -0.00   0.00     0.07  -0.01   0.01     0.45  -0.09   0.05
  55   1    -0.00   0.00  -0.00    -0.00   0.01  -0.01    -0.03   0.05  -0.04
  56   6    -0.00   0.00  -0.00    -0.00   0.00  -0.00    -0.00  -0.00  -0.00
  57   8     0.00  -0.00   0.00     0.00  -0.00   0.00     0.00  -0.00   0.00
  58   6     0.00  -0.00   0.00     0.00  -0.00   0.00    -0.00   0.00  -0.00
  59   8    -0.00   0.00  -0.00    -0.00   0.00  -0.00    -0.00   0.00  -0.00
                    163                    164                    165
                        a                      a                      a 
 Frequencies --  2977.6967              2984.0549              2984.5055
 Red. masses --     1.6811                 1.7925                 1.7989
 Frc consts  --     0.0000                 0.0000                 0.0000
 IR Inten    --     2.8365               211.9740               103.8987
 Raman Activ --     0.0000                 0.0000                 0.0000
 Depolar     --     0.0000                 0.0000                 0.0000
 Atom AN      X      Y      Z        X      Y      Z        X      Y      Z
   1  28     0.00   0.00   0.00    -0.00  -0.00   0.00    -0.00  -0.00  -0.00
   2   7     0.00   0.00  -0.00     0.00   0.00  -0.00    -0.00  -0.00  -0.00
   3   6    -0.00  -0.00   0.00    -0.00  -0.00  -0.00     0.00   0.00   0.00
   4   7    -0.00   0.00   0.00    -0.00   0.00   0.00     0.00  -0.00  -0.00
   5   6     0.00  -0.00   0.00    -0.02  -0.00  -0.02     0.01   0.00   0.01
   6   6    -0.01  -0.00  -0.00    -0.09  -0.02  -0.03     0.06   0.02   0.03
   7   6    -0.01  -0.00   0.00    -0.09  -0.07   0.00     0.06   0.05   0.00
   8   6    -0.00   0.00  -0.00    -0.06  -0.12  -0.04     0.04   0.09   0.03
   9   6     0.01   0.00   0.00    -0.04  -0.02  -0.04     0.03   0.01   0.03
  10   6     0.00  -0.00   0.00     0.00   0.00  -0.00     0.00  -0.00   0.00
  11   6    -0.00  -0.02   0.01    -0.00   0.00  -0.02     0.00  -0.01   0.01
  12   6     0.12  -0.00   0.01     0.00   0.00  -0.00     0.00  -0.00   0.00
  13   1    -0.01   0.01  -0.00     0.03  -0.06   0.01    -0.02   0.03  -0.01
  14   1    -0.00  -0.00  -0.00     0.02   0.06   0.05    -0.02  -0.04  -0.04
  15   1     0.01  -0.00  -0.00     0.19  -0.05  -0.04    -0.10   0.03   0.02
  16   1     0.01   0.01   0.01     0.13   0.12   0.15    -0.11  -0.10  -0.13
  17   1     0.02   0.01   0.02     0.25   0.20   0.27    -0.17  -0.14  -0.19
  18   1     0.01   0.01  -0.03     0.07   0.05  -0.28    -0.04  -0.03   0.18
  19   1     0.01   0.01   0.01     0.20   0.15   0.21    -0.14  -0.11  -0.14
  20   1     0.00  -0.02   0.00    -0.02   0.29  -0.07     0.01  -0.22   0.05
  21   1     0.00   0.00   0.00    -0.02   0.01  -0.00     0.01  -0.00   0.00
  22   1    -0.02  -0.01  -0.02     0.17   0.05   0.15    -0.13  -0.04  -0.11
  23   1    -0.00   0.00   0.00    -0.00   0.00   0.00     0.00  -0.00  -0.00
  24   1    -0.00   0.00  -0.01     0.00  -0.00   0.01    -0.00   0.00  -0.01
  25   1    -0.01   0.01  -0.03     0.01  -0.01   0.06    -0.01   0.01  -0.05
  26   1     0.03   0.06  -0.01    -0.00   0.00  -0.00     0.00   0.01  -0.00
  27   1    -0.47   0.01  -0.10    -0.01  -0.00  -0.00    -0.02  -0.00  -0.00
  28   1     0.03  -0.01   0.07     0.00  -0.00   0.01    -0.00   0.00  -0.00
  29   7    -0.01   0.00   0.01     0.00  -0.00  -0.00     0.00  -0.00  -0.00
  30   6     0.00   0.00  -0.00    -0.00   0.00   0.00    -0.00   0.00   0.00
  31   7     0.00  -0.00  -0.00    -0.00  -0.00  -0.00    -0.00  -0.00   0.00
  32   6    -0.00   0.00  -0.00    -0.01   0.01  -0.01    -0.02   0.02  -0.01
  33   6     0.00  -0.00  -0.00    -0.07   0.02  -0.00    -0.09   0.03   0.00
  34   6     0.01   0.00  -0.01    -0.06   0.03   0.05    -0.09   0.04   0.06
  35   6     0.00  -0.00   0.01    -0.04   0.07   0.06    -0.05   0.10   0.08
  36   6    -0.01   0.01  -0.00    -0.03   0.03  -0.00    -0.04   0.05  -0.01
  37   6    -0.00   0.00  -0.01     0.00   0.00  -0.00    -0.00   0.00  -0.00
  38   6     0.00   0.01  -0.05    -0.00   0.01  -0.01    -0.00   0.01  -0.01
  39   6    -0.20   0.02  -0.01     0.00   0.00  -0.00    -0.00   0.00  -0.00
  40   1     0.01   0.01   0.02     0.02   0.02   0.04     0.03   0.02   0.06
  41   1     0.00  -0.01  -0.00     0.01  -0.05  -0.01     0.02  -0.07  -0.02
  42   1     0.00   0.00   0.00     0.17   0.05   0.02     0.21   0.06   0.03
  43   1    -0.01   0.02   0.00     0.07  -0.11  -0.01     0.11  -0.18  -0.02
  44   1    -0.02   0.03   0.00     0.17  -0.25  -0.02     0.23  -0.34  -0.03
  45   1    -0.01  -0.03   0.03     0.05   0.15  -0.14     0.07   0.21  -0.19
  46   1    -0.01   0.02   0.00     0.14  -0.19  -0.02     0.20  -0.26  -0.02
  47   1    -0.00  -0.01  -0.03    -0.02  -0.06  -0.19    -0.02  -0.09  -0.28
  48   1    -0.00   0.00   0.00    -0.01  -0.00  -0.01    -0.01   0.00  -0.01
  49   1     0.03  -0.03   0.01     0.11  -0.11   0.02     0.17  -0.16   0.04
  50   1     0.00   0.00   0.00    -0.00  -0.00  -0.00    -0.00  -0.00  -0.00
  51   1     0.00  -0.01   0.01     0.00  -0.00   0.00     0.00  -0.01   0.01
  52   1     0.01  -0.07   0.06     0.01  -0.03   0.03     0.01  -0.04   0.04
  53   1    -0.04   0.04   0.11     0.00  -0.00  -0.01    -0.00   0.00   0.00
  54   1     0.78  -0.15   0.09    -0.01   0.00  -0.00     0.01  -0.00   0.00
  55   1    -0.04   0.08  -0.08     0.00  -0.01   0.01     0.00  -0.01   0.01
  56   6    -0.00  -0.00  -0.00    -0.00   0.00  -0.00     0.00  -0.00   0.00
  57   8    -0.00   0.00   0.00     0.00  -0.00   0.00    -0.00   0.00  -0.00
  58   6     0.00   0.00  -0.00    -0.00   0.00  -0.00    -0.00   0.00  -0.00
  59   8    -0.00   0.00   0.00     0.00  -0.00   0.00     0.00  -0.00   0.00
                    166                    167                    168
                        a                      a                      a 
 Frequencies --  2985.3529              2985.5550              2991.9851
 Red. masses --     1.5459                 1.5354                 1.5397
 Frc consts  --     0.0000                 0.0000                 0.0000
 IR Inten    --    51.2119                75.5117                26.3818
 Raman Activ --     0.0000                 0.0000                 0.0000
 Depolar     --     0.0000                 0.0000                 0.0000
 Atom AN      X      Y      Z        X      Y      Z        X      Y      Z
   1  28    -0.00   0.00   0.00    -0.00  -0.00  -0.00    -0.00  -0.00  -0.00
   2   7     0.00  -0.00  -0.00     0.00   0.00   0.00    -0.00   0.00  -0.00
   3   6    -0.00   0.00  -0.00    -0.00   0.00  -0.00     0.00   0.00   0.00
   4   7     0.00  -0.00   0.00     0.00  -0.00   0.00    -0.00   0.00  -0.00
   5   6     0.01  -0.02  -0.00     0.02  -0.05  -0.00     0.00   0.01   0.01
   6   6     0.03  -0.05  -0.05     0.08  -0.11  -0.12     0.00   0.02   0.03
   7   6     0.01   0.00  -0.02     0.02   0.01  -0.06    -0.01  -0.01   0.06
   8   6     0.00  -0.02   0.01     0.01  -0.04   0.02     0.10  -0.10   0.13
   9   6    -0.00  -0.00  -0.00    -0.01  -0.01  -0.01     0.03   0.00   0.03
  10   6     0.00  -0.00  -0.00     0.00  -0.00  -0.00    -0.00   0.00   0.00
  11   6     0.00   0.00  -0.00     0.00   0.01  -0.00    -0.00  -0.01   0.01
  12   6    -0.00   0.00  -0.00     0.00   0.00   0.00     0.00  -0.00   0.00
  13   1    -0.03   0.06  -0.02    -0.08   0.15  -0.04    -0.00   0.01  -0.00
  14   1     0.01   0.01   0.01     0.01   0.02   0.02    -0.01  -0.03  -0.02
  15   1    -0.26   0.06   0.04    -0.60   0.14   0.09     0.07  -0.02  -0.01
  16   1     0.15   0.12   0.15     0.33   0.26   0.33    -0.08  -0.06  -0.08
  17   1     0.01   0.01   0.00    -0.00  -0.00  -0.01    -0.02  -0.02  -0.01
  18   1    -0.02  -0.02   0.08    -0.06  -0.05   0.21     0.06   0.04  -0.20
  19   1    -0.01  -0.01  -0.01    -0.04  -0.04  -0.04    -0.35  -0.30  -0.34
  20   1    -0.00   0.09  -0.02    -0.00   0.19  -0.04    -0.00   0.66  -0.13
  21   1    -0.01   0.01   0.00    -0.01   0.01   0.00    -0.01   0.01   0.01
  22   1     0.02   0.01   0.02     0.03   0.01   0.03    -0.11  -0.03  -0.10
  23   1    -0.00   0.00   0.01    -0.01   0.01   0.01     0.00  -0.00  -0.00
  24   1     0.00   0.00  -0.00     0.00   0.00  -0.00    -0.00   0.00  -0.00
  25   1     0.00  -0.00   0.01     0.00  -0.00   0.01    -0.00   0.00  -0.01
  26   1    -0.00  -0.00   0.00    -0.01  -0.02   0.00     0.01   0.03  -0.01
  27   1     0.01  -0.00   0.00    -0.01   0.00  -0.00    -0.01  -0.00  -0.00
  28   1    -0.00   0.00  -0.00     0.00  -0.00   0.00     0.00  -0.00   0.00
  29   7     0.00   0.00   0.00    -0.00   0.00   0.00     0.00   0.00   0.00
  30   6    -0.00   0.00  -0.00     0.00  -0.00   0.00    -0.00   0.00   0.00
  31   7     0.00   0.00   0.00    -0.00  -0.00  -0.00     0.00   0.00   0.00
  32   6     0.02   0.03   0.04    -0.01  -0.01  -0.02    -0.00   0.00   0.00
  33   6     0.07   0.16   0.03    -0.03  -0.07  -0.01    -0.00   0.01   0.00
  34   6     0.01   0.05  -0.03    -0.01  -0.02   0.02     0.00   0.01  -0.01
  35   6     0.01   0.02   0.06    -0.01  -0.00  -0.02    -0.03   0.02  -0.04
  36   6    -0.01   0.02   0.00     0.00  -0.00  -0.00    -0.01   0.01  -0.00
  37   6     0.00   0.00   0.00    -0.00  -0.00  -0.00    -0.00  -0.00   0.00
  38   6     0.00   0.00  -0.01    -0.00   0.00   0.00     0.00  -0.00  -0.00
  39   6    -0.00   0.00  -0.00    -0.00   0.00   0.00    -0.00  -0.00   0.00
  40   1    -0.07  -0.04  -0.13     0.03   0.02   0.06     0.00   0.00   0.00
  41   1     0.02  -0.04  -0.01    -0.01   0.01   0.00     0.00  -0.01  -0.00
  42   1    -0.57  -0.12  -0.06     0.26   0.06   0.03    -0.02  -0.00  -0.00
  43   1     0.33  -0.46  -0.05    -0.14   0.19   0.02     0.02  -0.03  -0.00
  44   1     0.03  -0.03  -0.01     0.00  -0.01   0.00     0.01  -0.01  -0.00
  45   1    -0.06  -0.13   0.13     0.03   0.07  -0.07    -0.02  -0.04   0.04
  46   1    -0.01   0.02   0.01     0.02  -0.02  -0.01     0.09  -0.13  -0.02
  47   1    -0.01  -0.08  -0.22     0.00   0.03   0.08     0.01   0.07   0.17
  48   1    -0.02  -0.01  -0.01     0.01   0.00   0.00     0.00   0.00   0.00
  49   1     0.06  -0.05   0.01    -0.02   0.01  -0.00     0.03  -0.03   0.01
  50   1    -0.01  -0.02  -0.00     0.01   0.01   0.00     0.00   0.00  -0.00
  51   1     0.00   0.00  -0.00    -0.00  -0.00   0.00    -0.00   0.00  -0.00
  52   1     0.00  -0.02   0.01    -0.00   0.00  -0.00    -0.00   0.00  -0.00
  53   1    -0.01   0.01   0.02     0.00  -0.00  -0.01    -0.00   0.00   0.01
  54   1     0.01  -0.00   0.00     0.02  -0.00   0.00     0.02  -0.00   0.00
  55   1    -0.00   0.00  -0.00    -0.00   0.00  -0.00    -0.00   0.00  -0.00
  56   6     0.00   0.00   0.00    -0.00   0.00  -0.00     0.00   0.00   0.00
  57   8    -0.00  -0.00  -0.00     0.00  -0.00   0.00    -0.00   0.00  -0.00
  58   6     0.00   0.00  -0.00     0.00  -0.00   0.00     0.00  -0.00   0.00
  59   8    -0.00  -0.00   0.00    -0.00   0.00  -0.00    -0.00   0.00  -0.00
                    169                    170                    171
                        a                      a                      a 
 Frequencies --  2992.2319              2997.5486              2997.6841
 Red. masses --     1.5399                 1.6372                 1.6362
 Frc consts  --     0.0000                 0.0000                 0.0000
 IR Inten    --    79.9814                24.4188                70.9656
 Raman Activ --     0.0000                 0.0000                 0.0000
 Depolar     --     0.0000                 0.0000                 0.0000
 Atom AN      X      Y      Z        X      Y      Z        X      Y      Z
   1  28     0.00  -0.00   0.00     0.00   0.00  -0.00    -0.00  -0.00  -0.00
   2   7     0.00   0.00   0.00    -0.00   0.00   0.00    -0.00  -0.00  -0.00
   3   6    -0.00  -0.00  -0.00     0.00  -0.00   0.00     0.00  -0.00  -0.00
   4   7    -0.00  -0.00   0.00    -0.00  -0.00   0.00    -0.00   0.00  -0.00
   5   6    -0.00  -0.00  -0.00    -0.00   0.00  -0.00     0.00  -0.00  -0.00
   6   6    -0.00  -0.01  -0.01    -0.00   0.00   0.00     0.00  -0.00  -0.00
   7   6     0.00   0.00  -0.02    -0.00  -0.00   0.00     0.00   0.00  -0.00
   8   6    -0.03   0.03  -0.04     0.00  -0.00   0.00    -0.00   0.00  -0.00
   9   6    -0.01  -0.00  -0.01    -0.00   0.00   0.00    -0.00  -0.00  -0.00
  10   6     0.00  -0.00  -0.00    -0.00   0.01   0.00     0.00  -0.01  -0.00
  11   6     0.00   0.00  -0.00     0.06   0.13   0.00    -0.08  -0.17  -0.00
  12   6     0.00   0.00  -0.00     0.02   0.00  -0.00    -0.03  -0.00  -0.00
  13   1     0.00  -0.00   0.00     0.00  -0.00   0.00    -0.00   0.01  -0.00
  14   1     0.00   0.01   0.01    -0.00  -0.00  -0.00     0.00   0.00   0.00
  15   1    -0.02   0.00   0.00     0.01  -0.00  -0.00    -0.01   0.00   0.00
  16   1     0.02   0.02   0.02    -0.00   0.00   0.00     0.01   0.00   0.01
  17   1     0.01   0.01   0.00     0.00   0.00   0.00    -0.00  -0.00  -0.00
  18   1    -0.02  -0.01   0.06     0.00   0.00  -0.01    -0.00  -0.00   0.01
  19   1     0.10   0.08   0.10    -0.00  -0.00  -0.00     0.01   0.01   0.01
  20   1     0.00  -0.18   0.04    -0.00   0.01  -0.00     0.00  -0.02   0.00
  21   1     0.00  -0.01  -0.00     0.00  -0.00  -0.00    -0.00   0.00   0.00
  22   1     0.03   0.01   0.03    -0.00  -0.00  -0.00     0.00   0.00   0.00
  23   1    -0.00   0.00   0.00     0.01  -0.01  -0.01    -0.02   0.01   0.02
  24   1     0.00  -0.00   0.00     0.00  -0.00   0.01    -0.00   0.00  -0.01
  25   1     0.00  -0.00   0.01    -0.01   0.04  -0.13     0.01  -0.06   0.17
  26   1    -0.00  -0.01   0.00    -0.19  -0.51   0.12     0.26   0.69  -0.17
  27   1    -0.01  -0.00  -0.00    -0.06   0.00  -0.01     0.09  -0.00   0.02
  28   1     0.00  -0.00   0.01     0.00  -0.00   0.02    -0.01   0.00  -0.02
  29   7     0.00  -0.00   0.00    -0.00  -0.00   0.00     0.00  -0.00  -0.00
  30   6    -0.00   0.00   0.00     0.00  -0.00   0.00    -0.00  -0.00   0.00
  31   7    -0.00  -0.00   0.00    -0.00   0.00   0.00     0.00   0.00   0.00
  32   6    -0.00   0.01   0.00    -0.00  -0.00  -0.00    -0.00  -0.00  -0.00
  33   6    -0.00   0.03   0.00    -0.00  -0.00  -0.00    -0.00  -0.00  -0.00
  34   6     0.01   0.05  -0.04    -0.00  -0.00   0.00    -0.00  -0.00   0.00
  35   6    -0.10   0.07  -0.15     0.00  -0.00   0.00     0.00  -0.00   0.00
  36   6    -0.03   0.03  -0.01     0.00  -0.00   0.00     0.00  -0.00   0.00
  37   6     0.00   0.00  -0.00    -0.00  -0.01  -0.01    -0.00  -0.01  -0.01
  38   6     0.00   0.00  -0.01     0.07  -0.09  -0.15     0.05  -0.07  -0.11
  39   6    -0.00   0.00  -0.00     0.02  -0.00  -0.00     0.02  -0.00  -0.00
  40   1     0.00   0.00   0.01     0.00   0.00   0.01     0.00   0.00   0.00
  41   1     0.01  -0.03  -0.01    -0.00   0.00   0.00    -0.00   0.00   0.00
  42   1    -0.07  -0.01  -0.01     0.01   0.00   0.00     0.01   0.00   0.00
  43   1     0.07  -0.10  -0.01    -0.00   0.00   0.00    -0.01   0.01   0.00
  44   1     0.02  -0.03  -0.01     0.00  -0.01  -0.00    -0.00  -0.00   0.00
  45   1    -0.06  -0.14   0.14     0.00   0.01  -0.01     0.00   0.01  -0.01
  46   1     0.34  -0.47  -0.08    -0.00   0.01   0.00    -0.00   0.01   0.00
  47   1     0.02   0.23   0.63    -0.00  -0.01  -0.02    -0.00  -0.00  -0.01
  48   1     0.01   0.01   0.01     0.00   0.00   0.00     0.00   0.00   0.00
  49   1     0.11  -0.11   0.02    -0.00   0.00  -0.00    -0.00   0.00  -0.00
  50   1    -0.00  -0.00  -0.00     0.01   0.02   0.00     0.01   0.02   0.00
  51   1     0.00  -0.00   0.00     0.00  -0.01   0.01     0.00  -0.01   0.01
  52   1     0.00  -0.02   0.01    -0.01   0.11  -0.14    -0.01   0.08  -0.10
  53   1    -0.01   0.01   0.03    -0.25   0.23   0.67    -0.18   0.17   0.49
  54   1     0.00  -0.00   0.00    -0.08   0.02  -0.01    -0.07   0.01  -0.01
  55   1     0.00  -0.00   0.00     0.01  -0.01   0.01     0.00  -0.01   0.01
  56   6    -0.00   0.00  -0.00    -0.00  -0.00   0.00     0.00  -0.00   0.00
  57   8     0.00  -0.00   0.00    -0.00   0.00  -0.00    -0.00   0.00  -0.00
  58   6    -0.00   0.00  -0.00    -0.00   0.00  -0.00    -0.00   0.00  -0.00
  59   8     0.00  -0.00   0.00     0.00  -0.00   0.00     0.00  -0.00   0.00
