      -----------------------------------------------------------      
     |                   =====================                   |     
     |                           x T B                           |     
     |                   =====================                   |     
     |                         S. Grimme                         |     
     |          Mulliken Center for Theoretical Chemistry        |     
     |                    University of Bonn                     |     
      -----------------------------------------------------------      

   * xtb version 6.5.0 (97a52f5) compiled by 'conda@d2599ee0d4f4' on 2022-05-15

   xtb is free software: you can redistribute it and/or modify it under
   the terms of the GNU Lesser General Public License as published by
   the Free Software Foundation, either version 3 of the License, or
   (at your option) any later version.
   
   xtb is distributed in the hope that it will be useful,
   but WITHOUT ANY WARRANTY; without even the implied warranty of
   MERCHANTABILITY or FITNESS FOR A PARTICULAR PURPOSE.  See the
   GNU Lesser General Public License for more details.
   
   Cite this work as:
   * C. Bannwarth, E. Caldeweyher, S. Ehlert, A. Hansen, P. Pracht,
     J. Seibert, S. Spicher, S. Grimme, WIREs Comput. Mol. Sci., 2020, 11,
     e01493. DOI: 10.1002/wcms.1493
   
   for GFN2-xTB:
   * C. Bannwarth, S. Ehlert and S. Grimme., J. Chem. Theory Comput., 2019,
     15, 1652-1671. DOI: 10.1021/acs.jctc.8b01176
   for GFN1-xTB:
   * S. Grimme, C. Bannwarth, P. Shushkov, J. Chem. Theory Comput., 2017,
     13, 1989-2009. DOI: 10.1021/acs.jctc.7b00118
   for GFN0-xTB:
   * P. Pracht, E. Caldeweyher, S. Ehlert, S. Grimme, ChemRxiv, 2019, preprint.
     DOI: 10.26434/chemrxiv.8326202.v1
   for GFN-FF:
   * S. Spicher and S. Grimme, Angew. Chem. Int. Ed., 2020, 59, 15665-15673.
     DOI: 10.1002/anie.202004239
   
   for ALPB and GBSA implicit solvation:
   * S. Ehlert, M. Stahn, S. Spicher, S. Grimme, J. Chem. Theory Comput.,
     2021, 17, 4250-4261. DOI: 10.1021/acs.jctc.1c00471
   
   for DFT-D4:
   * E. Caldeweyher, C. Bannwarth and S. Grimme, J. Chem. Phys., 2017,
     147, 034112. DOI: 10.1063/1.4993215
   * E. Caldeweyher, S. Ehlert, A. Hansen, H. Neugebauer, S. Spicher,
     C. Bannwarth and S. Grimme, J. Chem. Phys., 2019, 150, 154122.
     DOI: 10.1063/1.5090222
   * E. Caldeweyher, J.-M. Mewes, S. Ehlert and S. Grimme, Phys. Chem. Chem. Phys.
     2020, 22, 8499-8512. DOI: 10.1039/D0CP00502A
   
   for sTDA-xTB:
   * S. Grimme and C. Bannwarth, J. Chem. Phys., 2016, 145, 054103.
     DOI: 10.1063/1.4959605
   
   in the mass-spec context:
   * V. Asgeirsson, C. Bauer and S. Grimme, Chem. Sci., 2017, 8, 4879.
     DOI: 10.1039/c7sc00601b
   * J. Koopman and S. Grimme, ACS Omega 2019, 4, 12, 15120-15133.
     DOI: 10.1021/acsomega.9b02011
   
   for metadynamics refer to:
   * S. Grimme, J. Chem. Theory Comput., 2019, 155, 2847-2862
     DOI: 10.1021/acs.jctc.9b00143
   
   for SPH calculations refer to:
   * S. Spicher and S. Grimme, J. Chem. Theory Comput., 2021, 17, 1701-1714
     DOI: 10.1021/acs.jctc.0c01306
   
   with help from (in alphabetical order)
   P. Atkinson, C. Bannwarth, F. Bohle, G. Brandenburg, E. Caldeweyher
   M. Checinski, S. Dohm, S. Ehlert, S. Ehrlich, I. Gerasimov, C. Hölzer
   A. Katbashev, J. Koopman, C. Lavigne, S. Lehtola, F. März, M. Müller,
   F. Musil, H. Neugebauer, J. Pisarek, C. Plett, P. Pracht, F. Pultar,
   J. Seibert, P. Shushkov, S. Spicher, M. Stahn, M. Steiner, T. Strunk,
   J. Stückrath, T. Rose, and J. Unsleber
   
 * started run on 2022/05/27 at 18:11:56.700     

           -------------------------------------------------
          |                Calculation Setup                |
           -------------------------------------------------

          program call               : xtb struc.xyz --gfn2 --hess
          hostname                   : fedora
          coordinate file            : struc.xyz
          omp threads                :                     1

   ID    Z sym.   atoms
    1   28 Ni     1
    2    7 N      2, 4, 29, 31
    3    6 C      3, 5-12, 30, 32-39, 56, 58
    4    1 H      13-28, 40-55
    5    8 O      57, 59

molecular fragmentation (1/2 indicates fragments):
11111111111111111111111111111111111111111111111111111111122
# atoms in fragment 1/2:    57     2
 fragment masses (1/2) :      391.18       28.01
CMA distance (Bohr)    :   6.580
constraining FC (au)   :  0.0500

           -------------------------------------------------
          |                 G F N 2 - x T B                 |
           -------------------------------------------------

        Reference                      10.1021/acs.jctc.8b01176
      * Hamiltonian:
        H0-scaling (s, p, d)           1.850000    2.230000    2.230000
        zeta-weighting                 0.500000
      * Dispersion:
        s8                             2.700000
        a1                             0.520000
        a2                             5.000000
        s9                             5.000000
      * Repulsion:
        kExp                           1.500000    1.000000
        rExp                           1.000000
      * Coulomb:
        alpha                          2.000000
        third order                    shell-resolved
        anisotropic                    true
        a3                             3.000000
        a5                             4.000000
        cn-shift                       1.200000
        cn-exp                         4.000000
        max-rad                        5.000000


          ...................................................
          :                      SETUP                      :
          :.................................................:
          :  # basis functions                 146          :
          :  # atomic orbitals                 145          :
          :  # shells                           87          :
          :  # electrons                       154          :
          :  max. iterations                   250          :
          :  Hamiltonian                  GFN2-xTB          :
          :  restarted?                      false          :
          :  GBSA solvation                  false          :
          :  PC potential                    false          :
          :  electronic temp.          300.0000000     K    :
          :  accuracy                    1.0000000          :
          :  -> integral cutoff          0.2500000E+02      :
          :  -> integral neglect         0.1000000E-07      :
          :  -> SCF convergence          0.1000000E-05 Eh   :
          :  -> wf. convergence          0.1000000E-03 e    :
          :  Broyden damping             0.4000000          :
          ...................................................

 iter      E             dE          RMSdq      gap      omega  full diag
   1    -84.6573171 -0.846573E+02  0.466E+00    3.90       0.0  T
   2    -84.8732095 -0.215892E+00  0.265E+00    3.05       1.0  T
   3    -84.8816590 -0.844953E-02  0.128E+00    2.15       1.0  T
   4    -84.9179889 -0.363299E-01  0.688E-01    2.31       1.0  T
   5    -84.9186445 -0.655531E-03  0.238E-01    2.41       1.0  T
   6    -84.9199282 -0.128376E-02  0.163E-01    2.34       1.0  T
   7    -84.9201030 -0.174821E-03  0.818E-02    2.37       1.0  T
   8    -84.9201116 -0.853100E-05  0.384E-02    2.35       1.0  T
   9    -84.9201236 -0.119827E-04  0.226E-02    2.38       1.0  T
  10    -84.9201353 -0.116950E-04  0.115E-02    2.36       1.1  T
  11    -84.9201377 -0.248987E-05  0.395E-03    2.36       3.3  T
  12    -84.9201383 -0.508924E-06  0.135E-03    2.36       9.7  T
  13    -84.9201383 -0.156945E-07  0.625E-04    2.36      20.8  T
  14    -84.9201382  0.220026E-07  0.785E-04    2.36      16.6  T

   *** convergence criteria satisfied after 14 iterations ***

         #    Occupation            Energy/Eh            Energy/eV
      -------------------------------------------------------------
         1        2.0000           -0.7153178             -19.4648
       ...           ...                  ...                  ...
        71        2.0000           -0.3632920              -9.8857
        72        2.0000           -0.3609329              -9.8215
        73        2.0000           -0.3283093              -8.9338
        74        2.0000           -0.3264173              -8.8823
        75        2.0000           -0.3181644              -8.6577
        76        2.0000           -0.3112885              -8.4706
        77        2.0000           -0.3085966              -8.3973 (HOMO)
        78                         -0.2217732              -6.0348 (LUMO)
        79                         -0.2150638              -5.8522
        80                         -0.1999890              -5.4420
        81                         -0.1999336              -5.4405
        82                         -0.1915336              -5.2119
       ...                                ...                  ...
       145                          1.1846141              32.2350
      -------------------------------------------------------------
                  HL-Gap            0.0868234 Eh            2.3626 eV
             Fermi-level           -0.2651849 Eh           -7.2160 eV

 SCC (total)                   0 d,  0 h,  0 min,  0.677 sec
 SCC setup                      ...        0 min,  0.000 sec (  0.038%)
 Dispersion                     ...        0 min,  0.001 sec (  0.087%)
 classical contributions        ...        0 min,  0.002 sec (  0.335%)
 integral evaluation            ...        0 min,  0.049 sec (  7.273%)
 iterations                     ...        0 min,  0.366 sec ( 54.011%)
 molecular gradient             ...        0 min,  0.259 sec ( 38.205%)
 printout                       ...        0 min,  0.000 sec (  0.050%)

         :::::::::::::::::::::::::::::::::::::::::::::::::::::
         ::                     SUMMARY                     ::
         :::::::::::::::::::::::::::::::::::::::::::::::::::::
         :: total energy             -83.871892888527 Eh    ::
         :: gradient norm              0.000193732065 Eh/a0 ::
         :: HOMO-LUMO gap              2.362584354811 eV    ::
         ::.................................................::
         :: SCC energy               -84.920138245374 Eh    ::
         :: -> isotropic ES            0.078487574551 Eh    ::
         :: -> anisotropic ES          0.017374549901 Eh    ::
         :: -> anisotropic XC          0.038175689691 Eh    ::
         :: -> dispersion             -0.066984459385 Eh    ::
         :: repulsion energy           1.046427640083 Eh    ::
         :: add. restraining           0.000000000000 Eh    ::
         :: total charge               0.000000000000 e     ::
         :::::::::::::::::::::::::::::::::::::::::::::::::::::

           ------------------------------------------------- 
          |                Numerical Hessian                |
           ------------------------------------------------- 
step length          :   0.00500
SCC accuracy         :   0.30000
Hessian scale factor :   1.00000
frozen atoms in %    :   0.00000    0
RMS gradient         :   0.00022
estimated CPU  time      0.40 min
estimated wall time      3.06 min

writing file <hessian>.

 projected vibrational frequencies (cm⁻¹)
eigval :       -0.00    -0.00     0.00     0.00     0.00     0.00
eigval :       10.17    13.32    24.47    24.84    36.93    41.60
eigval :       45.82    50.15    70.14    77.56    83.42    87.97
eigval :       88.41    97.67   111.01   162.92   163.73   171.08
eigval :      181.36   219.51   235.16   235.99   247.09   260.21
eigval :      267.95   295.69   296.52   324.82   346.82   346.99
eigval :      366.17   366.76   387.76   388.76   426.55   428.28
eigval :      430.23   465.74   468.99   483.52   498.72   501.25
eigval :      519.69   521.30   527.20   618.77   619.45   659.40
eigval :      660.36   733.93   735.05   845.53   845.68   860.89
eigval :      861.00   878.13   878.31   896.13   899.79   906.31
eigval :      906.46   926.79   928.34   951.77   953.18   977.60
eigval :      977.94   995.94   996.55  1024.72  1025.21  1050.31
eigval :     1050.54  1091.23  1091.58  1101.75  1102.30  1115.85
eigval :     1117.05  1122.51  1124.06  1142.43  1142.77  1145.15
eigval :     1145.83  1166.79  1169.28  1188.67  1191.03  1199.73
eigval :     1201.24  1215.32  1217.03  1233.62  1233.76  1243.97
eigval :     1244.10  1252.69  1253.63  1268.90  1269.85  1302.67
eigval :     1303.44  1317.71  1318.42  1328.30  1330.37  1333.33
eigval :     1333.93  1341.40  1341.65  1343.92  1344.09  1354.06
eigval :     1354.17  1360.44  1360.60  1425.28  1427.07  1444.05
eigval :     1444.21  1470.51  1476.15  1476.92  1478.58  1478.85
eigval :     1482.58  1482.83  1482.98  1490.63  1490.75  1494.43
eigval :     1496.19  1499.78  1499.86  1650.95  1658.85  1978.14
eigval :     2004.37  2874.25  2874.47  2891.60  2892.63  2898.83
eigval :     2899.37  2923.91  2924.22  2942.65  2942.88  2959.29
eigval :     2959.48  2965.74  2965.99  2970.10  2970.33  2973.20
eigval :     2973.38  2974.37  2974.66  2975.21  2975.33  2977.08
eigval :     2977.70  2984.05  2984.51  2985.35  2985.55  2991.99
eigval :     2992.23  2997.55  2997.68
           -------------------------------------------------
          |                Property Printout                |
           -------------------------------------------------

    * Orbital Energies and Occupations

         #    Occupation            Energy/Eh            Energy/eV
      -------------------------------------------------------------
         1        2.0000           -0.7153256             -19.4650
       ...           ...                  ...                  ...
        65        2.0000           -0.4226061             -11.4997
        66        2.0000           -0.4216744             -11.4743
        67        2.0000           -0.4200373             -11.4298
        68        2.0000           -0.4191529             -11.4057
        69        2.0000           -0.3848279             -10.4717
        70        2.0000           -0.3825237             -10.4090
        71        2.0000           -0.3632893              -9.8856
        72        2.0000           -0.3609302              -9.8214
        73        2.0000           -0.3282988              -8.9335
        74        2.0000           -0.3264068              -8.8820
        75        2.0000           -0.3181538              -8.6574
        76        2.0000           -0.3112781              -8.4703
        77        2.0000           -0.3085887              -8.3971 (HOMO)
        78                         -0.2217825              -6.0350 (LUMO)
        79                         -0.2150729              -5.8524
        80                         -0.1999972              -5.4422
        81                         -0.1999405              -5.4407
        82                         -0.1915334              -5.2119
        83                         -0.1909060              -5.1948
        84                         -0.0135827              -0.3696
        85                         -0.0127295              -0.3464
        86                          0.0518631               1.4113
        87                          0.0532097               1.4479
        88                          0.0646207               1.7584
       ...                                ...                  ...
       145                          1.1846136              32.2350
      -------------------------------------------------------------
                  HL-Gap            0.0868062 Eh            2.3621 eV
             Fermi-level           -0.2651856 Eh           -7.2161 eV

     #   Z          covCN         q      C6AA      α(0)
     1  28 Ni       2.908    -0.888   202.870    29.389
     2   7 N        2.404    -0.111    23.536     7.204
     3   6 C        2.849     0.151    24.713     8.147
     4   7 N        2.739    -0.097    23.140     7.144
     5   6 C        3.747     0.000    20.641     6.480
     6   6 C        3.801    -0.061    21.674     6.628
     7   6 C        3.802    -0.058    21.613     6.619
     8   6 C        3.802    -0.052    21.507     6.602
     9   6 C        3.811    -0.072    21.868     6.656
    10   6 C        3.753     0.010    20.471     6.452
    11   6 C        3.805    -0.063    21.709     6.633
    12   6 C        3.770     0.020    20.274     6.417
    13   1 H        0.924     0.038     2.474     2.460
    14   1 H        0.924     0.048     2.341     2.393
    15   1 H        0.924     0.033     2.539     2.492
    16   1 H        0.924     0.038     2.476     2.461
    17   1 H        0.924     0.033     2.548     2.496
    18   1 H        0.924     0.032     2.559     2.502
    19   1 H        0.924     0.038     2.471     2.458
    20   1 H        0.924     0.040     2.447     2.446
    21   1 H        0.923     0.117     1.636     2.000
    22   1 H        0.924     0.045     2.380     2.413
    23   1 H        0.924     0.034     2.532     2.488
    24   1 H        0.923     0.032     2.556     2.500
    25   1 H        0.924     0.036     2.497     2.471
    26   1 H        0.925     0.032     2.552     2.498
    27   1 H        0.924     0.066     2.129     2.282
    28   1 H        0.923     0.033     2.546     2.495
    29   7 N        2.403    -0.111    23.541     7.205
    30   6 C        2.849     0.151    24.712     8.147
    31   7 N        2.739    -0.097    23.140     7.144
    32   6 C        3.747     0.000    20.640     6.480
    33   6 C        3.801    -0.061    21.674     6.628
    34   6 C        3.802    -0.058    21.613     6.619
    35   6 C        3.802    -0.052    21.507     6.603
    36   6 C        3.811    -0.072    21.869     6.656
    37   6 C        3.753     0.010    20.470     6.452
    38   6 C        3.805    -0.063    21.709     6.633
    39   6 C        3.770     0.020    20.272     6.416
    40   1 H        0.924     0.038     2.474     2.460
    41   1 H        0.924     0.048     2.342     2.393
    42   1 H        0.924     0.033     2.539     2.492
    43   1 H        0.924     0.038     2.476     2.461
    44   1 H        0.924     0.033     2.547     2.496
    45   1 H        0.924     0.032     2.559     2.502
    46   1 H        0.924     0.038     2.472     2.459
    47   1 H        0.924     0.040     2.446     2.446
    48   1 H        0.923     0.117     1.635     2.000
    49   1 H        0.924     0.045     2.379     2.412
    50   1 H        0.924     0.034     2.532     2.488
    51   1 H        0.923     0.032     2.557     2.501
    52   1 H        0.924     0.036     2.496     2.471
    53   1 H        0.925     0.032     2.553     2.499
    54   1 H        0.924     0.066     2.132     2.283
    55   1 H        0.923     0.033     2.546     2.495
    56   6 C        1.740     0.274    25.017     8.091
    57   8 O        0.856    -0.194    17.976     5.684
    58   6 C        1.740     0.274    25.014     8.091
    59   8 O        0.856    -0.195    17.978     5.685

 Mol. C6AA /au·bohr⁶  :      34080.305485
 Mol. C8AA /au·bohr⁸  :     865293.834683
 Mol. α(0) /au        :        284.618661


Wiberg/Mayer (AO) data.
largest (>0.10) Wiberg bond orders for each atom

 ---------------------------------------------------------------------------
     #   Z sym  total        # sym  WBO       # sym  WBO       # sym  WBO
 ---------------------------------------------------------------------------
     1  28 Ni   3.977 --    56 C    1.179    58 C    1.179     2 N    0.448
                            29 N    0.448    57 O    0.215    59 O    0.215
     2   7 N    3.426 --     3 C    1.626    12 C    1.005     1 Ni   0.448
                             4 N    0.161
     3   6 C    3.967 --     2 N    1.626     4 N    1.218     9 C    0.998
     4   7 N    3.460 --     3 C    1.218     5 C    0.994    10 C    0.988
                             2 N    0.161
     5   6 C    3.976 --     6 C    0.994     4 N    0.994    13 H    0.973
                            14 H    0.964
     6   6 C    3.996 --     7 C    1.009     5 C    0.994    15 H    0.976
                            16 H    0.976
     7   6 C    3.997 --     6 C    1.009     8 C    1.009    18 H    0.976
                            17 H    0.976
     8   6 C    3.995 --     7 C    1.009     9 C    0.993    19 H    0.976
                            20 H    0.976
     9   6 C    3.991 --     3 C    0.998     8 C    0.993    22 H    0.958
                            21 H    0.908
    10   6 C    3.980 --    11 C    1.006     4 N    0.988    23 H    0.969
                            24 H    0.968
    11   6 C    3.995 --    10 C    1.006    12 C    0.996    25 H    0.976
                            26 H    0.976
    12   6 C    3.989 --     2 N    1.005    11 C    0.996    28 H    0.960
                            27 H    0.955
    13   1 H    0.998 --     5 C    0.973
    14   1 H    0.997 --     5 C    0.964
    15   1 H    0.998 --     6 C    0.976
    16   1 H    0.999 --     6 C    0.976
    17   1 H    0.999 --     7 C    0.976
    18   1 H    0.999 --     7 C    0.976
    19   1 H    0.999 --     8 C    0.976
    20   1 H    0.998 --     8 C    0.976
    21   1 H    0.986 --     9 C    0.908
    22   1 H    0.998 --     9 C    0.958
    23   1 H    0.998 --    10 C    0.969
    24   1 H    0.999 --    10 C    0.968
    25   1 H    0.999 --    11 C    0.976
    26   1 H    0.998 --    11 C    0.976
    27   1 H    0.995 --    12 C    0.955
    28   1 H    0.998 --    12 C    0.960
    29   7 N    3.426 --    30 C    1.626    39 C    1.005     1 Ni   0.448
                            31 N    0.161
    30   6 C    3.967 --    29 N    1.626    31 N    1.218    36 C    0.998
    31   7 N    3.460 --    30 C    1.218    32 C    0.994    37 C    0.988
                            29 N    0.161
    32   6 C    3.976 --    33 C    0.994    31 N    0.994    40 H    0.973
                            41 H    0.964
    33   6 C    3.996 --    34 C    1.009    32 C    0.994    42 H    0.976
                            43 H    0.976
    34   6 C    3.997 --    33 C    1.009    35 C    1.009    45 H    0.976
                            44 H    0.976
    35   6 C    3.995 --    34 C    1.009    36 C    0.993    46 H    0.976
                            47 H    0.976
    36   6 C    3.991 --    30 C    0.998    35 C    0.993    49 H    0.958
                            48 H    0.908
    37   6 C    3.980 --    38 C    1.006    31 N    0.988    50 H    0.969
                            51 H    0.968
    38   6 C    3.995 --    37 C    1.006    39 C    0.996    52 H    0.977
                            53 H    0.976
    39   6 C    3.989 --    29 N    1.005    38 C    0.996    55 H    0.960
                            54 H    0.955
    40   1 H    0.998 --    32 C    0.973
    41   1 H    0.997 --    32 C    0.964
    42   1 H    0.998 --    33 C    0.976
    43   1 H    0.999 --    33 C    0.976
    44   1 H    0.999 --    34 C    0.976
    45   1 H    0.999 --    34 C    0.976
    46   1 H    0.999 --    35 C    0.976
    47   1 H    0.998 --    35 C    0.976
    48   1 H    0.986 --    36 C    0.908
    49   1 H    0.998 --    36 C    0.958
    50   1 H    0.998 --    37 C    0.969
    51   1 H    0.999 --    37 C    0.968
    52   1 H    0.999 --    38 C    0.977
    53   1 H    0.998 --    38 C    0.976
    54   1 H    0.995 --    39 C    0.955
    55   1 H    0.998 --    39 C    0.960
    56   6 C    3.505 --    57 O    2.212     1 Ni   1.179
    57   8 O    2.488 --    56 C    2.212     1 Ni   0.215
    58   6 C    3.505 --    59 O    2.212     1 Ni   1.179
    59   8 O    2.488 --    58 C    2.212     1 Ni   0.215
 ---------------------------------------------------------------------------

Topologies differ in total number of bonds
Writing topology from bond orders to xtbtopo.mol

molecular dipole:
                 x           y           z       tot (Debye)
 q only:        0.039       2.281       1.268
   full:        0.047       2.827       1.576       8.228
molecular quadrupole (traceless):
                xx          xy          yy          xz          yz          zz
 q only:       30.711       0.368     -15.501      -2.168      -0.247     -15.210
  q+dip:       33.367      -2.290     -17.713       2.466      -1.824     -15.654
   full:       34.083      -1.416     -17.266       0.884      -0.502     -16.817

           -------------------------------------------------
          |               Frequency Printout                |
           -------------------------------------------------
 projected vibrational frequencies (cm⁻¹)
eigval :       -0.00    -0.00     0.00     0.00     0.00     0.00
eigval :       10.17    13.32    24.47    24.84    36.93    41.60
eigval :       45.82    50.15    70.14    77.56    83.42    87.97
eigval :       88.41    97.67   111.01   162.92   163.73   171.08
eigval :      181.36   219.51   235.16   235.99   247.09   260.21
eigval :      267.95   295.69   296.52   324.82   346.82   346.99
eigval :      366.17   366.76   387.76   388.76   426.55   428.28
eigval :      430.23   465.74   468.99   483.52   498.72   501.25
eigval :      519.69   521.30   527.20   618.77   619.45   659.40
eigval :      660.36   733.93   735.05   845.53   845.68   860.89
eigval :      861.00   878.13   878.31   896.13   899.79   906.31
eigval :      906.46   926.79   928.34   951.77   953.18   977.60
eigval :      977.94   995.94   996.55  1024.72  1025.21  1050.31
eigval :     1050.54  1091.23  1091.58  1101.75  1102.30  1115.85
eigval :     1117.05  1122.51  1124.06  1142.43  1142.77  1145.15
eigval :     1145.83  1166.79  1169.28  1188.67  1191.03  1199.73
eigval :     1201.24  1215.32  1217.03  1233.62  1233.76  1243.97
eigval :     1244.10  1252.69  1253.63  1268.90  1269.85  1302.67
eigval :     1303.44  1317.71  1318.42  1328.30  1330.37  1333.33
eigval :     1333.93  1341.40  1341.65  1343.92  1344.09  1354.06
eigval :     1354.17  1360.44  1360.60  1425.28  1427.07  1444.05
eigval :     1444.21  1470.51  1476.15  1476.92  1478.58  1478.85
eigval :     1482.58  1482.83  1482.98  1490.63  1490.75  1494.43
eigval :     1496.19  1499.78  1499.86  1650.95  1658.85  1978.14
eigval :     2004.37  2874.25  2874.47  2891.60  2892.63  2898.83
eigval :     2899.37  2923.91  2924.22  2942.65  2942.88  2959.29
eigval :     2959.48  2965.74  2965.99  2970.10  2970.33  2973.20
eigval :     2973.38  2974.37  2974.66  2975.21  2975.33  2977.08
eigval :     2977.70  2984.05  2984.51  2985.35  2985.55  2991.99
eigval :     2992.23  2997.55  2997.68
 reduced masses (amu)
   1: 16.14   2: 14.16   3: 15.50   4: 12.04   5: 15.57   6: 19.23   7: 12.94   8: 13.36
   9: 11.16  10: 14.40  11: 13.53  12: 13.79  13: 15.02  14: 14.95  15: 20.17  16: 10.22
  17: 10.34  18: 10.08  19:  9.93  20: 16.67  21: 10.63  22: 21.71  23: 13.16  24: 25.68
  25: 26.46  26: 14.49  27:  8.68  28:  7.87  29: 12.09  30: 11.61  31: 12.71  32:  8.30
  33:  8.09  34: 20.00  35: 10.16  36:  9.50  37:  8.92  38:  9.27  39:  9.40  40:  9.43
  41: 17.66  42:  8.73  43: 13.68  44:  8.43  45:  8.41  46: 12.84  47: 10.90  48:  9.37
  49:  9.05  50:  6.50  51: 23.15  52: 10.61  53: 10.65  54:  8.09  55:  8.02  56:  9.97
  57:  9.95  58:  6.65  59:  6.65  60:  5.75  61:  5.71  62:  6.86  63:  6.84  64:  4.50
  65:  4.96  66:  6.29  67:  6.63  68:  6.17  69:  6.09  70:  8.39  71:  8.40  72:  7.30
  73:  7.28  74:  7.50  75:  7.52  76:  7.37  77:  7.30  78:  6.46  79:  6.45  80:  6.86
  81:  6.84  82:  6.33  83:  6.35  84:  6.68  85:  6.01  86:  7.00  87:  7.71  88:  7.38
  89:  7.42  90:  7.71  91:  7.75  92:  3.85  93:  3.98  94:  4.22  95:  4.15  96:  4.11
  97:  4.09  98:  4.79  99:  4.86 100:  4.36 101:  4.40 102:  2.84 103:  2.83 104:  3.81
 105:  3.69 106:  5.80 107:  5.78 108:  4.18 109:  4.06 110:  4.89 111:  4.84 112:  4.71
 113:  4.57 114:  4.58 115:  4.47 116:  5.49 117:  5.33 118:  4.56 119:  4.73 120:  4.91
 121:  4.90 122:  4.95 123:  4.94 124:  7.93 125:  8.04 126:  3.79 127:  3.79 128:  2.06
 129:  1.95 130:  1.94 131:  1.94 132:  2.01 133:  2.01 134:  2.14 135:  2.14 136:  2.17
 137:  2.11 138:  2.14 139:  2.08 140:  1.95 141:  1.95 142: 12.24 143: 12.31 144: 13.64
 145: 13.63 146:  1.87 147:  1.87 148:  1.76 149:  1.77 150:  1.78 151:  1.78 152:  1.57
 153:  1.56 154:  1.84 155:  1.84 156:  1.89 157:  1.89 158:  1.72 159:  1.73 160:  1.78
 161:  1.78 162:  1.77 163:  1.76 164:  1.79 165:  1.81 166:  1.72 167:  1.72 168:  1.70
 169:  1.68 170:  1.79 171:  1.80 172:  1.55 173:  1.54 174:  1.54 175:  1.54 176:  1.64
 177:  1.64
 IR intensities (km·mol⁻¹)
   1:  0.11   2:  0.80   3:  0.14   4:  0.03   5:  0.43   6:  0.95   7:  0.60   8:  0.75
   9:  0.10  10:  0.16  11:  0.30  12:  0.00  13:  0.46  14:  0.08  15:  1.20  16:  0.28
  17:  0.15  18:  0.76  19:  1.14  20:  0.18  21:  0.04  22:  0.83  23:  0.14  24:  0.40
  25:  0.27  26:  3.49  27:  0.55  28:  0.01  29:  3.60  30:  1.44  31:  0.16  32:  0.34
  33:  0.11  34:  1.95  35:  6.66  36:  3.48  37:  1.17  38:  8.07  39:  2.54  40:  0.15
  41:  2.86  42:  7.74  43: 17.47  44:  1.04  45:  2.81  46:  1.26  47:  0.54  48:  1.17
  49:  6.72  50:  0.60  51:  6.60  52: 11.38  53:  8.83  54: 10.74  55:  0.40  56:  0.17
  57:  1.62  58:  0.39  59:  0.83  60: 13.29  61:  3.48  62:  2.11  63:  5.56  64:  3.70
  65:  1.74  66:  0.01  67:  1.89  68:  6.35  69:  0.01  70:  1.38  71:  0.50  72: 19.25
  73:  1.84  74:  0.02  75: 12.03  76: 17.70  77:  8.69  78:  6.47  79:  6.43  80:  1.08
  81:  1.12  82: 20.37  83:  0.09  84:  4.55  85:  1.25  86: 17.60  87: 14.68  88:  5.04
  89:  0.80  90:  0.38  91:  0.09  92:  2.37  93:  4.58  94: 25.52  95:  5.86  96: 12.08
  97:  0.57  98: 10.17  99:  2.18 100: 24.08 101:  0.89 102:  3.11 103:  2.69 104:  3.36
 105:  0.32 106: 33.85 107:  0.41 108: 61.05 109:  0.39 110: 19.43 111: 13.77 112:  0.16
 113:  3.29 114: 18.57 115: 17.95 116: 32.12 117: 13.89 118:  1.17 119: 35.08 120:  0.42
 121:  0.24 122:  9.19 123:  2.64 124:103.91 125: 49.52 126: 45.86 127: 24.58 128:  9.21
 129:  2.03 130:  0.90 131:  0.02 132:  1.23 133:  0.09 134:  3.29 135:  0.88 136:  0.84
 137: 10.79 138:  2.61 139:  0.74 140:  0.53 141:  0.56 142:****** 143:161.89 144:******
 145:696.67 146: 23.41 147: 40.92 148:  0.30 149:  4.25 150: 15.94 151: 53.58 152: 44.43
 153: 67.48 154: 14.38 155: 17.84 156: 12.65 157: 13.47 158:  7.01 159:  6.75 160:  5.47
 161: 11.28 162: 23.08 163: 15.66 164:100.12 165: 10.29 166:  7.73 167:  6.91 168: 38.05
 169:  2.84 170:211.97 171:103.90 172: 51.21 173: 75.51 174: 26.38 175: 79.98 176: 24.42
 177: 70.97
 Raman intensities (amu)
   1:  0.00   2:  0.00   3:  0.00   4:  0.00   5:  0.00   6:  0.00   7:  0.00   8:  0.00
   9:  0.00  10:  0.00  11:  0.00  12:  0.00  13:  0.00  14:  0.00  15:  0.00  16:  0.00
  17:  0.00  18:  0.00  19:  0.00  20:  0.00  21:  0.00  22:  0.00  23:  0.00  24:  0.00
  25:  0.00  26:  0.00  27:  0.00  28:  0.00  29:  0.00  30:  0.00  31:  0.00  32:  0.00
  33:  0.00  34:  0.00  35:  0.00  36:  0.00  37:  0.00  38:  0.00  39:  0.00  40:  0.00
  41:  0.00  42:  0.00  43:  0.00  44:  0.00  45:  0.00  46:  0.00  47:  0.00  48:  0.00
  49:  0.00  50:  0.00  51:  0.00  52:  0.00  53:  0.00  54:  0.00  55:  0.00  56:  0.00
  57:  0.00  58:  0.00  59:  0.00  60:  0.00  61:  0.00  62:  0.00  63:  0.00  64:  0.00
  65:  0.00  66:  0.00  67:  0.00  68:  0.00  69:  0.00  70:  0.00  71:  0.00  72:  0.00
  73:  0.00  74:  0.00  75:  0.00  76:  0.00  77:  0.00  78:  0.00  79:  0.00  80:  0.00
  81:  0.00  82:  0.00  83:  0.00  84:  0.00  85:  0.00  86:  0.00  87:  0.00  88:  0.00
  89:  0.00  90:  0.00  91:  0.00  92:  0.00  93:  0.00  94:  0.00  95:  0.00  96:  0.00
  97:  0.00  98:  0.00  99:  0.00 100:  0.00 101:  0.00 102:  0.00 103:  0.00 104:  0.00
 105:  0.00 106:  0.00 107:  0.00 108:  0.00 109:  0.00 110:  0.00 111:  0.00 112:  0.00
 113:  0.00 114:  0.00 115:  0.00 116:  0.00 117:  0.00 118:  0.00 119:  0.00 120:  0.00
 121:  0.00 122:  0.00 123:  0.00 124:  0.00 125:  0.00 126:  0.00 127:  0.00 128:  0.00
 129:  0.00 130:  0.00 131:  0.00 132:  0.00 133:  0.00 134:  0.00 135:  0.00 136:  0.00
 137:  0.00 138:  0.00 139:  0.00 140:  0.00 141:  0.00 142:  0.00 143:  0.00 144:  0.00
 145:  0.00 146:  0.00 147:  0.00 148:  0.00 149:  0.00 150:  0.00 151:  0.00 152:  0.00
 153:  0.00 154:  0.00 155:  0.00 156:  0.00 157:  0.00 158:  0.00 159:  0.00 160:  0.00
 161:  0.00 162:  0.00 163:  0.00 164:  0.00 165:  0.00 166:  0.00 167:  0.00 168:  0.00
 169:  0.00 170:  0.00 171:  0.00 172:  0.00 173:  0.00 174:  0.00 175:  0.00 176:  0.00
 177:  0.00
 output can be read by thermo (or use thermo option).
 writing <g98.out> molden fake output.
 recommended (thermochemical) frequency scaling factor: 1.0
           -------------------------------------------------
          |             Thermodynamic Functions             |
Refinement of some symmetry elements was terminated before convergence was reached.
Some symmetry elements may remain unidentified.
Molecule has the following symmetry elements: (C2) 
It seems to be the C2 point group
           -------------------------------------------------

c2  symmetry found (for desy threshold:  0.10E+00) used in thermo

          ...................................................
          :                      SETUP                      :
          :.................................................:
          :  # frequencies                         171      :
          :  # imaginary freq.                       0      :
          :  linear?                             false      :
          :  only rotor calc.                    false      :
          :  symmetry                               c2      :
          :  rotational number                       2      :
          :  scaling factor                  1.0000000      :
          :  rotor cutoff                   50.0000000 cm⁻¹ :
          :  imag. cutoff                  -20.0000000 cm⁻¹ :
          :.................................................:

    mode    ω/cm⁻¹     T·S(HO)/kcal·mol⁻¹    T·S(FR)/kcal·mol⁻¹   T·S(vib)
   ------------------------------------------------------------------------
       1     10.17    -2.37865 (  0.17%)    -1.52828 ( 99.83%)    -1.52973
       2     13.32    -2.21881 (  0.50%)    -1.44837 ( 99.50%)    -1.45223
       3     24.47    -1.85853 (  5.43%)    -1.26816 ( 94.57%)    -1.30020
       4     24.84    -1.84959 (  5.75%)    -1.26368 ( 94.25%)    -1.29735
       5     36.93    -1.61514 ( 22.94%)    -1.14626 ( 77.06%)    -1.25381
       6     41.60    -1.54480 ( 32.40%)    -1.11099 ( 67.60%)    -1.25154
       7     45.82    -1.48780 ( 41.36%)    -1.08239 ( 58.64%)    -1.25005
       8     50.15    -1.43459 ( 50.29%)    -1.05566 ( 49.71%)    -1.24623
       9     70.14    -1.23716 ( 79.48%)    -0.95627 ( 20.52%)    -1.17951
      10     77.56    -1.17821 ( 85.27%)    -0.92648 ( 14.73%)    -1.14114
      11     83.42    -1.13557 ( 88.57%)    -0.90490 ( 11.43%)    -1.10921
      12     87.97    -1.10456 ( 90.55%)    -0.88917 (  9.45%)    -1.08420
      13     88.41    -1.10162 ( 90.72%)    -0.88768 (  9.28%)    -1.08177
      14     97.67    -1.04364 ( 93.57%)    -0.85820 (  6.43%)    -1.03172
      15    111.01    -0.96932 ( 96.05%)    -0.82025 (  3.95%)    -0.96342
      16    162.92    -0.75004 ( 99.12%)    -0.70662 (  0.88%)    -0.74966
      17    163.73    -0.74725 ( 99.14%)    -0.70515 (  0.86%)    -0.74689
      18    171.08    -0.72258 ( 99.28%)    -0.69213 (  0.72%)    -0.72236
      19    181.36    -0.69003 ( 99.43%)    -0.67485 (  0.57%)    -0.68994
      20    219.51    -0.58531 ( 99.73%)    -0.61830 (  0.27%)    -0.58540
      21    235.16    -0.54835 ( 99.80%)    -0.59788 (  0.20%)    -0.54845
      22    235.99    -0.54648 ( 99.80%)    -0.59685 (  0.20%)    -0.54658
      23    247.09    -0.52213 ( 99.83%)    -0.58323 (  0.17%)    -0.52223
      24    260.21    -0.49504 ( 99.86%)    -0.56790 (  0.14%)    -0.49514
      25    267.95    -0.47984 ( 99.88%)    -0.55922 (  0.12%)    -0.47994
      26    295.69    -0.42969 ( 99.92%)    -0.53004 (  0.08%)    -0.42978
      27    296.52    -0.42827 ( 99.92%)    -0.52920 (  0.08%)    -0.42836
   ------------------------------------------------------------------------

   temp. (K)  partition function   enthalpy   heat capacity  entropy
                                   cal/mol     cal/K/mol   cal/K/mol   J/K/mol
 298.15  VIB  0.146E+15            16489.376    101.486    106.748
         ROT  0.764E+07              888.752      2.981     34.477
         INT  0.111E+22            17378.128    104.467    141.225
         TR   0.830E+28             1481.254      4.968     43.970
         TOT                       18859.3820   109.4352   185.1950   774.8560

       T/K    H(0)-H(T)+PV         H(T)/Eh          T*S/Eh         G(T)/Eh
   ------------------------------------------------------------------------
    298.15    0.300543E-01    0.528596E+00    0.879921E-01    0.440604E+00
   ------------------------------------------------------------------------

         :::::::::::::::::::::::::::::::::::::::::::::::::::::
         ::                  THERMODYNAMIC                  ::
         :::::::::::::::::::::::::::::::::::::::::::::::::::::
         :: total free energy         -83.431289004947 Eh   ::
         ::.................................................::
         :: total energy              -83.871892912010 Eh   ::
         :: zero point energy           0.498541703511 Eh   ::
         :: G(RRHO) w/o ZPVE           -0.057937796449 Eh   ::
         :: G(RRHO) contrib.            0.440603907063 Eh   ::
         :::::::::::::::::::::::::::::::::::::::::::::::::::::

           -------------------------------------------------
          | TOTAL ENERGY              -83.871892912010 Eh   |
          | TOTAL ENTHALPY            -83.343296870170 Eh   |
          | TOTAL FREE ENERGY         -83.431289004947 Eh   |
          | GRADIENT NORM               0.000216518772 Eh/α |
          | HOMO-LUMO GAP               2.362117240568 eV   |
           -------------------------------------------------

------------------------------------------------------------------------
 * finished run on 2022/05/27 at 18:14:43.158     
------------------------------------------------------------------------
 total:
 * wall-time:     0 d,  0 h,  2 min, 46.458 sec
 *  cpu-time:     0 d,  0 h,  0 min, 22.455 sec
 * ratio c/w:     0.135 speedup
 SCF:
 * wall-time:     0 d,  0 h,  0 min,  0.694 sec
 *  cpu-time:     0 d,  0 h,  0 min,  0.090 sec
 * ratio c/w:     0.129 speedup
 analytical hessian:
 * wall-time:     0 d,  0 h,  2 min, 45.282 sec
 *  cpu-time:     0 d,  0 h,  0 min, 22.318 sec
 * ratio c/w:     0.135 speedup

