59
 energy: -83.871837266421 gnorm: 0.000480152110 xtb: 6.5.0 (97a52f5)
Ni           0.03261006586299        0.04893138998499       -0.10311925857542
N           -1.43201670095735        1.60214790492074        0.23219167176966
C           -1.41035204531677        2.49748453044983        1.15367201189517
N           -2.34418175556992        3.47075397014231        1.31859048730772
C           -2.15702577896237        4.55491580248259        2.25699456731468
C           -0.96680126412516        5.45835333046564        1.91433086648609
C            0.35439735826109        4.92022825557445        2.45577965343245
C            0.75159341119891        3.57575230424422        1.85439373794443
C           -0.26253949571417        2.45910076378685        2.12049731029425
C           -3.43486225952985        3.60499946711259        0.37475793508481
C           -3.76554499461706        2.24265148695937       -0.21521940637404
C           -2.47689511080577        1.65238870852130       -0.77462783153967
H           -3.07520972057950        5.14727772681314        2.24870816130635
H           -2.03331501030302        4.15641939863218        3.26966592419004
H           -1.14524767887147        6.44788965971775        2.34060987703433
H           -0.90429653783224        5.56802242717297        0.82969150555474
H            0.27756087932843        4.81991990442239        3.54205466040313
H            1.14341571051006        5.64688950375142        2.24910255284281
H            0.89034017799043        3.67259900391957        0.77599268003598
H            1.71183418751889        3.27811986539083        2.27947906637030
H            0.23382830361811        1.49438403515371        1.95145777260410
H           -0.61176653030128        2.49829238941369        3.15379262019113
H           -3.16692034730682        4.30738957533300       -0.42768359766716
H           -4.30380931461474        4.01318220260424        0.90260447539246
H           -4.52290101537020        2.33948922266834       -0.99322075862476
H           -4.15343260605140        1.59100782259944        0.57127845297875
H           -2.12265453778387        2.26043501957416       -1.61761448560018
H           -2.64043747660888        0.63955180978705       -1.14994842086399
N           -1.43289052868285       -1.52348678528223       -0.34010995325609
C           -1.46406332035522       -2.41633336063046       -1.26372165470735
N           -2.39251107179424       -3.40347935142850       -1.36434881865968
C           -2.25745220834211       -4.48198861024857       -2.31809265077133
C           -1.03189003321744       -5.36793925787950       -2.06626961080545
C            0.23807224352872       -4.80804478363716       -2.70038609819705
C            0.65761231606890       -3.45934519726985       -2.12400143370949
C           -0.38994346110571       -2.35758488598639       -2.31086642929096
C           -3.40844631169531       -3.55786027069579       -0.34334173603218
C           -3.71794734675199       -2.20209869161104        0.27279560094137
C           -2.40209475340101       -1.59091105629229        0.73873057338792
H           -3.16356013340832       -5.08845852148082       -2.24582102690368
H           -2.21343716147341       -4.07857420297406       -3.33541644801367
H           -1.22595118408497       -6.35908814613425       -2.48202097454174
H           -0.88882052736672       -5.47941637195231       -0.98941382481595
H            0.08056850640650       -4.70549719551412       -3.77776583736449
H            1.05099691976411       -5.52312853710858       -2.55495412490997
H            0.87601825110967       -3.55728403119962       -1.05892439404293
H            1.57972863547192       -3.14557261815770       -2.61662359878305
H            0.10285326097618       -1.38590580046864       -2.17417144593060
H           -0.81265670823055       -2.39885364307606       -3.31630899872161
H           -3.07038274861514       -4.25665144176716        0.43542036704699
H           -4.30674203645946       -3.98012834097528       -0.80707050235335
H           -4.41480862116932       -2.31296817910133        1.10368378623991
H           -4.17311678358955       -1.55599802373677       -0.48158070093484
H           -1.97853179248318       -2.19277090799376        1.55369418765249
H           -2.55482521414101       -0.58076616992167        1.12577151436499
C            0.92514428713320       -0.90714190804234        1.09724362889339
O            1.40864547117052       -1.87331367800414        1.49781251037949
C            0.83688074995649        1.01247972446284       -1.35848462367863
O            1.28730439171326        1.98220376249216       -1.78789851365650
