59
 energy: -83.753953016098 gnorm: 0.172797661938 xtb: 6.5.0 (97a52f5)
Ni           0.00000000000000        0.00000000000000        0.00000000000000
N           -1.51320900000000        1.51320900000000        0.00000000000000
C           -1.38927800000000        2.47756000000000        0.91695800000000
N           -2.28239500000000        3.60446200000000        0.93129300000000
C           -2.31689900000000        4.55849700000000        2.05224500000000
C           -1.09888500000000        5.49964000000000        2.06582200000000
C            0.20619900000000        4.88771500000000        2.57383400000000
C            0.66326600000000        3.64082500000000        1.83674500000000
C           -0.31149000000000        2.44346800000000        1.99681100000000
C           -3.20006800000000        3.77161200000000       -0.17719900000000
C           -3.78073900000000        2.41577500000000       -0.51176500000000
C           -2.62149700000000        1.49814900000000       -0.95196800000000
H           -3.19294000000000        5.23145300000000        1.94091000000000
H           -2.45026700000000        4.03870400000000        3.02644700000000
H           -1.31378700000000        6.34104000000000        2.76197400000000
H           -0.96224400000000        5.92899900000000        1.05071200000000
H            0.11103000000000        4.63507200000000        3.65183100000000
H            1.00250200000000        5.66278300000000        2.48524000000000
H            0.85047200000000        3.88649800000000        0.76638200000000
H            1.63759700000000        3.36483700000000        2.29679400000000
H            0.24070500000000        1.49680500000000        1.98182100000000
H           -0.73664700000000        2.43385500000000        3.02003900000000
H           -2.63971700000000        4.14659800000000       -1.06209600000000
H           -3.99703300000000        4.51015600000000        0.05480400000000
H           -4.53522400000000        2.49543300000000       -1.32153300000000
H           -4.27500200000000        2.01370300000000        0.40127200000000
H           -2.23498500000000        1.81211100000000       -1.94352600000000
H           -3.02789500000000        0.47080000000000       -1.04849200000000
N           -1.51320900000000       -1.51320900000000        0.00000000000000
C           -1.43287800000000       -2.40684500000000       -0.98442500000000
N           -2.32906400000000       -3.52488000000000       -1.03756400000000
C           -2.45080400000000       -4.37178500000000       -2.22097000000000
C           -1.23555000000000       -5.29741100000000       -2.40628000000000
C            0.03696900000000       -4.64078400000000       -2.93447400000000
C            0.55600400000000       -3.46708000000000       -2.11573500000000
C           -0.41487900000000       -2.26381900000000       -2.10733000000000
C           -3.13288600000000       -3.81295500000000        0.13790700000000
C           -3.71242400000000       -2.50472700000000        0.63777100000000
C           -2.54032300000000       -1.58625400000000        1.03655900000000
H           -3.31851300000000       -5.04963700000000       -2.10626600000000
H           -2.65883700000000       -3.76337300000000       -3.13906000000000
H           -1.50017800000000       -6.07555900000000       -3.16025700000000
H           -1.03657800000000       -5.82139200000000       -1.44548300000000
H           -0.12836600000000       -4.28718300000000       -3.97424500000000
H            0.83316400000000       -5.41930100000000       -2.97158400000000
H            0.81236700000000       -3.79962300000000       -1.08483600000000
H            1.49989900000000       -3.15034400000000       -2.61187200000000
H            0.17021100000000       -1.34047300000000       -2.01501600000000
H           -0.88970200000000       -2.14716600000000       -3.10386500000000
H           -2.48275300000000       -4.23673900000000        0.93484500000000
H           -3.93067400000000       -4.55401000000000       -0.07742700000000
H           -4.38149700000000       -2.67318200000000        1.50762300000000
H           -4.30304500000000       -2.05147000000000       -0.18975600000000
H           -2.06294400000000       -1.95935300000000        1.96716600000000
H           -2.95239900000000       -0.57700000000000        1.23996900000000
C            1.51320900000000       -1.51320900000000        0.00000000000000
O            2.40264700000000       -2.20079400000000        0.09998200000000
C            1.51320900000000        1.51320900000000        0.00000000000000
O            2.44737700000000        2.12926000000000       -0.14896100000000
59
 energy: -83.791745717306 gnorm: 0.081185599626 xtb: 6.5.0 (97a52f5)
Ni           0.06934114483047       -0.00324366123495       -0.00126064683833
N           -1.52378649954043        1.53687586107134        0.05146260575038
C           -1.42611646760554        2.48746290621402        0.92920163044278
N           -2.27626381104752        3.60071416969269        0.94408176859102
C           -2.30387127567675        4.55851093025983        2.04205847644283
C           -1.09603883954626        5.50440496278256        2.07570366206063
C            0.20492719247090        4.88892227186104        2.57977623145369
C            0.65485631275397        3.63522216792907        1.84585968336115
C           -0.33617962070096        2.45910098015949        1.98115845657980
C           -3.18537425580052        3.77069158849677       -0.17130436394186
C           -3.78195884543594        2.41773887222645       -0.51331995575257
C           -2.61327722660547        1.51361508660045       -0.91772034490914
H           -3.19388181859651        5.19558742975925        1.92078388801708
H           -2.42435530466496        4.03843569102032        3.00589805101102
H           -1.33081483278038        6.34495072759659        2.74511571299311
H           -0.95822709734578        5.91409193462318        1.06619471092064
H            0.10228492049600        4.64582408347769        3.64634409050208
H            0.99361064739299        5.65203911974705        2.49484440192856
H            0.82753747702394        3.87252010648317        0.78792280231843
H            1.62454794081950        3.34676662613425        2.27811117736342
H            0.20714052647485        1.50321198144037        1.92781954908119
H           -0.76416861106453        2.46494291839902        2.99424073889696
H           -2.64013069244910        4.15436465723888       -1.05216711866018
H           -3.97105443948161        4.50017157478179        0.07302560176440
H           -4.52607619799923        2.49250391068500       -1.31577307201361
H           -4.27246812619053        2.01027118468138        0.38213593102479
H           -2.23020187744523        1.81297233647009       -1.90745160716655
H           -2.98425885993575        0.48329494076679       -1.02795303944413
N           -1.52354449628965       -1.53296062681423       -0.04154210173628
C           -1.47170122563127       -2.41006178437766       -0.99267318903299
N           -2.32381913121690       -3.51825005106403       -1.04647920534077
C           -2.43498464312702       -4.37225550908791       -2.21415698324183
C           -1.23300958910590       -5.30444729164335       -2.41642254747120
C            0.03665281939301       -4.64327039808525       -2.94027623898143
C            0.54728307338586       -3.46357882622364       -2.12456218026239
C           -0.43639026802017       -2.27825282800178       -2.08901813156904
C           -3.11886479520028       -3.80873941452219        0.13189446253329
C           -3.71413314777976       -2.50594116948035        0.63812833977034
C           -2.53475525827187       -1.60019107878867        1.00508824217482
H           -3.31553981139793       -5.01939823355158       -2.08662871238618
H           -2.62723566005601       -3.76758614394873       -3.11959937676413
H           -1.51332974494591       -6.08114710997201       -3.14405255008634
H           -1.03362443801490       -5.80669406334867       -1.45948070660144
H           -0.13423296630654       -4.29789412336750       -3.96901015825227
H            0.82399035399969       -5.41079693138614       -2.98047309616014
H            0.78836363619640       -3.79018457592400       -1.10482402343273
H            1.48882078390715       -3.13818467271856       -2.59191369446709
H            0.13091821522779       -1.34227564536722       -1.95678082484141
H           -0.91201932699785       -2.17524857374367       -3.07606299100623
H           -2.48302477440033       -4.24308521010145        0.92361237958525
H           -3.90572385963893       -4.54069154778301       -0.09836127950810
H           -4.37412315591567       -2.66901206013416        1.49915359607083
H           -4.29976697053337       -2.04812223663710       -0.17145299064158
H           -2.06304298765417       -1.95684530287327        1.93581834997306
H           -2.91175758707953       -0.58800620217191        1.21572209556086
C            1.51264655329687       -1.48222529738846        0.02009777127734
O            2.41572462255000       -2.17358622507659        0.13427964077792
C            1.51054529018883        1.48880598009971       -0.03941581675530
O            2.47306002708871        2.09083279411979       -0.18362610096234
59
 energy: -83.817469026600 gnorm: 0.072520983156 xtb: 6.5.0 (97a52f5)
Ni           0.22612058305512       -0.00946332131459       -0.01267506856776
N           -1.52727022252797        1.55263515268518        0.09262029586356
C           -1.45514476333567        2.50364750456818        0.92736762362142
N           -2.26754067411400        3.59470842154146        0.95460197217877
C           -2.29266015474660        4.55332524649917        2.03276736300459
C           -1.09461861938734        5.50754950853124        2.07399159522625
C            0.19990433942066        4.88887278179813        2.58834237863485
C            0.63672987963120        3.62943809934396        1.84723307187295
C           -0.36662141684282        2.47157087989411        1.97335007117649
C           -3.17349485805768        3.77253311101915       -0.16337233071433
C           -3.77370179054362        2.41466148309588       -0.51044974793101
C           -2.60114797105396        1.51746816695245       -0.88959661809999
H           -3.19316538549529        5.16022712247021        1.90617609720895
H           -2.39276769605261        4.03432889444508        2.99047593807900
H           -1.34786552897599        6.34285165314541        2.72431912341834
H           -0.94802992385351        5.90225910474073        1.07065586541128
H            0.08906258915718        4.65171351166994        3.64516094238137
H            0.98532121477142        5.63783203780856        2.50462358079500
H            0.80127120071607        3.86209817505092        0.80000252275280
H            1.59699021044120        3.32480177336340        2.26182066736575
H            0.16488544094253        1.50702211305708        1.87569722315481
H           -0.79696774308328        2.48711567784010        2.97617658259124
H           -2.63936356731316        4.16253543473439       -1.03858517799028
H           -3.95065319825073        4.49122636239326        0.09710604031374
H           -4.50350486481899        2.49178439502728       -1.31059390377300
H           -4.27007388124790        2.01089217687964        0.36938582562148
H           -2.21358079325638        1.81308282965546       -1.87208012738533
H           -2.93791305092974        0.48382797392998       -1.00459763608212
N           -1.52647563315137       -1.54516725276495       -0.07265674283401
C           -1.50174157757398       -2.42148675741905       -0.98777465379606
N           -2.31508037069207       -3.51080693105828       -1.05279305042030
C           -2.42073745664892       -4.36834146796632       -2.20842141102670
C           -1.23039878116539       -5.31081335922191       -2.41504375712215
C            0.03264164123323       -4.64331192249949       -2.94899114635736
C            0.52954784519424       -3.46029286186416       -2.12492238590780
C           -0.46608871524038       -2.29068368747019       -2.07979009907867
C           -3.10816851527224       -3.80777713484132        0.12341102733104
C           -3.70627438038762       -2.50215183325061        0.63478854418168
C           -2.52545441998215       -1.60158537591498        0.98075052982654
H           -3.31245594590845       -4.98800961069363       -2.07161725672191
H           -2.58899194880772       -3.76646510180864       -3.10435980083172
H           -1.52613375033034       -6.08101107953846       -3.12347519795813
H           -1.02292193562724       -5.79616888272425       -1.46383310200322
H           -0.14561898789179       -4.30434425367890       -3.96841737475982
H            0.81596982290167       -5.39769038440414       -2.98950776581361
H            0.76129522188183       -3.78513468272235       -1.11523120815316
H            1.46313329761666       -3.12094810638719       -2.57287607450773
H            0.08259381645504       -1.34403602268887       -1.90304871446821
H           -0.94248028757151       -2.19605757224220       -3.05674383883401
H           -2.48364086578842       -4.24957748313712        0.90936769312917
H           -3.88734090537989       -4.52875459473399       -0.12475444576254
H           -4.35350854400693       -2.66654665288432        1.49060404844926
H           -4.29530004348190       -2.04785144231767       -0.15876146475932
H           -2.05330962020754       -1.95234211046293        1.90560003804473
H           -2.87011852513743       -0.58563646316656        1.19026758660461
C            1.45923252910330       -1.49491252375830        0.09612267535353
O            2.43422695151413       -2.11676396567528        0.13045754787676
C            1.45060117187276        1.51882241414755       -0.13689150305169
O            2.50792255823152        2.01797183232289       -0.16961186675765
59
 energy: -83.828908141136 gnorm: 0.081296496448 xtb: 6.5.0 (97a52f5)
Ni           0.34826137346787       -0.00976596344139       -0.02784603452724
N           -1.52961075780748        1.54194687082182        0.12616565513406
C           -1.47019324131798        2.51055791849286        0.94058057516352
N           -2.26655108524487        3.59728883223692        0.96082148393058
C           -2.28946050131592        4.55445203127731        2.03150466362444
C           -1.09498596878979        5.51241820021675        2.06803769387063
C            0.19280684149106        4.88848574823878        2.59702238219469
C            0.62061112740250        3.62538305495686        1.85131573807956
C           -0.38385767078035        2.47488848676205        1.98331376637940
C           -3.17030686122395        3.77481737711874       -0.15844540083896
C           -3.76178889606704        2.40987183526874       -0.50824912415369
C           -2.58604932416526        1.51063831001158       -0.87107088202809
H           -3.19849188422259        5.14340559758016        1.90469052772743
H           -2.36809183997350        4.03377495897808        2.98906510764329
H           -1.36139745639716        6.35073424896415        2.70635752343099
H           -0.93483607057950        5.89372806300380        1.06320682331450
H            0.07168881718663        4.65312995978412        3.65172561052257
H            0.98418055132799        5.62830628736335        2.51547192092235
H            0.77327493229900        3.85581597841678        0.80302476009314
H            1.57871219649055        3.30482077536807        2.25342105100001
H            0.13377313753819        1.50473217299157        1.85163933985199
H           -0.81972659514530        2.49214373945301        2.97970432683561
H           -2.63607247262739        4.17106605751564       -1.02782854862318
H           -3.94686112059501        4.48616295905808        0.11362112158116
H           -4.47806805046421        2.48961549421234       -1.31841411148357
H           -4.27238631000636        2.01040181655282        0.36399099020307
H           -2.18128399263505        1.81253329160498       -1.84269114899113
H           -2.90498669515637        0.47489308586496       -0.98586621377510
N           -1.52630824051016       -1.53423812461394       -0.09756073676885
C           -1.51713602820868       -2.42590628945850       -0.99761303747490
N           -2.31287601017530       -3.51252146477226       -1.05757920635351
C           -2.41491867995409       -4.36942740049628       -2.20884705508444
C           -1.22900912806663       -5.31752157739141       -2.40955437596058
C            0.02667231003976       -4.64279781079746       -2.95681467588330
C            0.51306903944624       -3.45697119925007       -2.12624726741369
C           -0.48450306268628       -2.29289114737445       -2.08751818320228
C           -3.10658683520010       -3.80799174857262        0.11690654615684
C           -3.69495560485636       -2.49540045535345        0.63078419192047
C           -2.51192282683113       -1.59302742043126        0.96489599579281
H           -3.31605624062819       -4.97096525732078       -2.07100663246609
H           -2.55723100045925       -3.76436779006435       -3.10428267828182
H           -1.53634883496450       -6.09080428801732       -3.10678244229303
H           -1.00876295388876       -5.79002025727802       -1.45680368692708
H           -0.16114666932339       -4.30633058632547       -3.97390920249265
H            0.81544962598218       -5.38863345597982       -2.99907970720670
H            0.73219261066838       -3.78371594315874       -1.11549858197238
H            1.44608652860728       -3.10417424938434       -2.55991664830924
H            0.04804724333118       -1.34099995782113       -1.87841830314671
H           -0.96604638917142       -2.20044809824052       -3.05774851766060
H           -2.48419495740188       -4.25673079863908        0.89780472464701
H           -3.88640802308217       -4.52039766242370       -0.14383585373659
H           -4.33064563846443       -2.66230484747967        1.49293136611944
H           -4.29474961248102       -2.04410199164575       -0.15491106912562
H           -2.02971037073579       -1.94736285302296        1.88090193870064
H           -2.84047185702966       -0.57415154360316        1.16994392329939
C            1.41759975064470       -1.45887609439938        0.24139852188623
O            2.44017492515054       -2.03245322943446        0.13215106069812
C            1.45301410718170        1.43853177528405       -0.22038201157260
O            2.47850364037658        1.96342557879367       -0.23590699296898
59
 energy: -83.830323732862 gnorm: 0.099929518175 xtb: 6.5.0 (97a52f5)
Ni           0.40234385023250       -0.00878790340126       -0.02359095552594
N           -1.52960325225634        1.52526713682430        0.14365961073003
C           -1.47146844591400        2.51203232064905        0.95815796249385
N           -2.27153690246712        3.60478576155290        0.96207032281854
C           -2.29147132152734        4.55801144394634        2.03665472216913
C           -1.09659408072296        5.51672104456951        2.05929533359128
C            0.18491419238798        4.88722673286343        2.60319696756313
C            0.60681094474846        3.62234283396546        1.85577093666702
C           -0.39132881839951        2.47065591146749        2.00191420822765
C           -3.17612690340225        3.77589975018834       -0.15490550373014
C           -3.75155226590014        2.40455821050299       -0.50624320511030
C           -2.57302576183874        1.50065741552772       -0.86238282675045
H           -3.20701485178301        5.14000037335745        1.91705044718441
H           -2.34968973827258        4.03386285052221        2.99747389309999
H           -1.36802393986380        6.36409601395702        2.69096479325373
H           -0.92332990949805        5.88795924475109        1.04853802731291
H            0.05365640368079        4.65121898991062        3.66096668233627
H            0.98698608900839        5.62290485716655        2.52599823625942
H            0.74758099753835        3.85265180937874        0.79943940258631
H            1.56849815744032        3.29141114957915        2.24998168817710
H            0.11292489556913        1.49907137406848        1.85007448249572
H           -0.83215564909665        2.48388578106211        2.99678618459951
H           -2.63714402221612        4.18050307277837       -1.01992513756679
H           -3.95832735183065        4.48187790092890        0.12547087911879
H           -4.45735235122335        2.48445309464263       -1.33189368322857
H           -4.27740809506020        2.00745287190552        0.36453083306353
H           -2.14780032683462        1.81405344591030       -1.82305853787911
H           -2.88523849745114        0.46238737314231       -0.97332642079903
N           -1.52478462148313       -1.51960214375467       -0.10808272590845
C           -1.51731284412339       -2.42739515421144       -1.01046355579480
N           -2.31457582797118       -3.52067098272972       -1.05803281117719
C           -2.41411133324162       -4.37281284577064       -2.21225263624888
C           -1.22747806377727       -5.32247883321787       -2.40175150091304
C            0.01921191140222       -4.63976336610930       -2.96424771703757
C            0.49918110978679       -3.45283051190825       -2.12909938840231
C           -0.49190595223882       -2.28592471748934       -2.10030436854111
C           -3.11064130077673       -3.81014244914944        0.11440352647280
C           -3.68334056966729       -2.49098178525860        0.63044405411244
C           -2.49864035779414       -1.58404579030065        0.96120577599401
H           -3.32234513291830       -4.96545733154969       -2.08213560818781
H           -2.53392930365157       -3.76152776715614       -3.11262134288495
H           -1.54033931420277       -6.10609176741844       -3.09335854851791
H           -0.99242847056204       -5.78678400497589       -1.44361730226453
H           -0.18017332789217       -4.30339656960423       -3.98368744534760
H            0.81919335217965       -5.38041175995539       -3.01189556711682
H            0.70716155509778       -3.78232636335288       -1.11098375470112
H            1.43649496343695       -3.09078743865609       -2.55390224293758
H            0.03255707536438       -1.33633336996922       -1.86750682813595
H           -0.97909011281243       -2.18736866342857       -3.06867090705922
H           -2.48468551084250       -4.26629069043521        0.89108343551069
H           -3.89695837462918       -4.51622510904737       -0.15397215170935
H           -4.30913966868328       -2.65948227102544        1.50556806684827
H           -4.29618740415926       -2.04039338245419       -0.15298639997353
H           -1.99992235412320       -1.94649486357448        1.86675322342259
H           -2.82208385016395       -0.56198232722776        1.16059677084618
C            1.47807810055552       -1.33220411984962        0.23097147215741
O            2.35690177286807       -2.03122243712142        0.27733510827480
C            1.43918496447728        1.38233247723706       -0.40564576642456
O            2.49370884549787        1.88460647774702       -0.24404120751261
59
 energy: -83.839710400769 gnorm: 0.048842775792 xtb: 6.5.0 (97a52f5)
Ni           0.33901777957108        0.00644913184696       -0.04187529817428
N           -1.52817423362130        1.52387827203010        0.13732475188762
C           -1.46303244622664        2.50517648545275        0.96984473335999
N           -2.27772058561380        3.60671981341888        0.96151657640230
C           -2.29510972137359        4.56030977406609        2.04379510206252
C           -1.09730558500164        5.51652635730995        2.05528737569026
C            0.18046272606945        4.88369703173227        2.60483044518831
C            0.60371076671817        3.61932012332119        1.86127320966250
C           -0.38610925301726        2.45964822840980        2.01341871264422
C           -3.18245277917826        3.77313682568965       -0.15384675124437
C           -3.74937413012303        2.40354531208230       -0.51002054159587
C           -2.56862725600486        1.49930952523685       -0.86792330701194
H           -3.21104805627296        5.14920254763675        1.93373737706686
H           -2.34958933066458        4.03622403227496        3.00786894945366
H           -1.36152779054557        6.37419170589661        2.68444099756540
H           -0.92087132967456        5.88411894571054        1.03926974631405
H            0.04332521479205        4.64735824671698        3.66647600889500
H            0.98875784266155        5.62096317737800        2.53393239743333
H            0.73975927344521        3.84865752302786        0.79858392882382
H            1.57178261124130        3.29352695208819        2.25393987292992
H            0.12056174708452        1.49345251145410        1.86375838345466
H           -0.82378638428604        2.46396661950988        3.01420886444520
H           -2.64001530048226        4.18506205814737       -1.01792351373963
H           -3.97232771125832        4.47783535445471        0.12439315723638
H           -4.45172135467877        2.48009361125150       -1.34470410787650
H           -4.28029106601153        2.00336135503918        0.36213189828665
H           -2.13253066984685        1.81678361501113       -1.82443565308739
H           -2.88652021555558        0.45956465970893       -0.97904043641516
N           -1.52073037816122       -1.51356622078786       -0.10614146501859
C           -1.50611867096527       -2.42052731567206       -1.02092035238697
N           -2.31763149455516       -3.52243998757952       -1.05731922516760
C           -2.41562948828520       -4.37320699475369       -2.21667190843851
C           -1.22600188190529       -5.32168785070151       -2.39772049959528
C            0.01575379570613       -4.63606079758551       -2.96584402975957
C            0.49604316592785       -3.44782426802927       -2.13480136280028
C           -0.48851528570190       -2.27443139190792       -2.11297066809433
C           -3.11556859524050       -3.80719406711084        0.11430344184740
C           -3.67821551750499       -2.48814733596050        0.63370435777229
C           -2.49126011598191       -1.57997533029473        0.96517403003017
H           -3.32524974615243       -4.96987456965695       -2.09885112963371
H           -2.53164148880551       -3.76064207909195       -3.12266930743032
H           -1.53293466296755       -6.11666864803066       -3.08795716600343
H           -0.98673461679431       -5.78464925855429       -1.43468416464567
H           -0.18992776164422       -4.29933402713515       -3.98854050515090
H            0.82275486787022       -5.37635601161189       -3.01970955803934
H            0.69931337384991       -3.77703379469360       -1.11005697657347
H            1.43986482162017       -3.09064668575005       -2.55850756926595
H            0.03806061131016       -1.32984645417217       -1.88810450499816
H           -0.97644281653443       -2.17018322753558       -3.08535454181402
H           -2.48798362614235       -4.27079622429935        0.89036465055612
H           -3.91020492717236       -4.51091795857447       -0.15172588190614
H           -4.30140968266159       -2.65451169106621        1.51681572357474
H           -4.29528333737668       -2.03473119935071       -0.15132420279344
H           -1.98359940850767       -1.94622643238129        1.86717714712839
H           -2.82185910376814       -0.55732703200444        1.16589527359162
C            1.46960793594842       -1.36656471828695        0.38592070398430
O            2.37879817751349       -2.04725690182926        0.30400560643656
C            1.46014024568980        1.37137990552695       -0.46625467373634
O            2.48248584924575        1.89783977297753       -0.33572312132605
59
 energy: -83.830350802398 gnorm: 0.193406097703 xtb: 6.5.0 (97a52f5)
Ni           0.27174617576602        0.01531097827709       -0.00829521741847
N           -1.52325590225356        1.52786070796288        0.14423805446751
C           -1.46095236116905        2.49658726367719        0.98499354122099
N           -2.28100033199977        3.59866866903915        0.96785950681282
C           -2.29555517609077        4.55992003034584        2.04842396118996
C           -1.09601597531968        5.51423483250998        2.04985361494705
C            0.17662622571829        4.87870876360066        2.60571374970412
C            0.60399898778926        3.61360284720548        1.86876372398275
C           -0.37936484081472        2.44757100407837        2.02039097927449
C           -3.18259759400451        3.76473781585605       -0.15011409451670
C           -3.74254396131865        2.39855553017313       -0.51952308388532
C           -2.55502399246298        1.49984052733501       -0.86925998544080
H           -3.21171296934594        5.15260442604062        1.94881384513889
H           -2.34691493483875        4.04082554713881        3.01418187240018
H           -1.35062446974335        6.38340332970135        2.66814708306992
H           -0.91912031191271        5.87199401075774        1.03030232149426
H            0.03016127161145        4.64404317104765        3.66696608389882
H            0.98691183332933        5.61513956240163        2.54450604820327
H            0.73457490532837        3.83850288883016        0.80434485421843
H            1.57712228721975        3.30039857847513        2.25707097629998
H            0.13602320206518        1.48831136472813        1.86362910944831
H           -0.80441795374050        2.43931513248695        3.02905329277671
H           -2.64397512054653        4.18934809693813       -1.01226824942824
H           -3.98163389422148        4.46268302475479        0.12470167380166