 Entering Gaussian System
 *********************************************
 Gaussian 98:
 frequency output generated by the xtb code
 *********************************************
                         Standard orientation:
 --------------------------------------------------------------------
  Center     Atomic     Atomic              Coordinates (Angstroms)
  Number     Number      Type              X           Y           Z
 --------------------------------------------------------------------
    1         28             0        0.021019   -1.353175   -0.469673
    2          7             0       -2.010909   -0.612831   -0.413552
    3          6             0       -2.555753   -0.011024    0.583087
    4          7             0       -3.888283    0.214107    0.728910
    5          6             0       -4.437782    0.878512    1.887634
    6          6             0       -4.112411    2.374937    1.950740
    7          6             0       -2.736357    2.645414    2.549756
    8          6             0       -1.601121    2.035048    1.733234
    9          6             0       -1.639622    0.505908    1.657775
   10          6             0       -4.797524   -0.149956   -0.337731
   11          6             0       -4.270157   -1.392319   -1.040149
   12          6             0       -2.845066   -1.106503   -1.497226
   13          1             0       -5.522268    0.749798    1.849555
   14          1             0       -4.082200    0.391446    2.802094
   15          1             0       -4.868369    2.871828    2.562371
   16          1             0       -4.168788    2.794324    0.943871
   17          1             0       -2.704703    2.244848    3.566398
   18          1             0       -2.584439    3.725556    2.617920
   19          1             0       -1.620632    2.444846    0.721145
   20          1             0       -0.654000    2.330790    2.190385
   21          1             0       -0.639378    0.138840    1.394731
   22          1             0       -1.908318    0.087042    2.629549
   23          1             0       -4.895312    0.676354   -1.056867
   24          1             0       -5.786443   -0.342658    0.089022
   25          1             0       -4.905401   -1.653641   -1.886109
   26          1             0       -4.261242   -2.227026   -0.336475
   27          1             0       -2.846063   -0.358006   -2.300826
   28          1             0       -2.382366   -2.014788   -1.892854
   29          7             0        1.199920    0.461501   -0.465987
   30          6             0        2.382590    0.611483    0.014558
   31          7             0        3.150726    1.722837   -0.133651
   32          6             0        4.536726    1.751994    0.277526
   33          6             0        5.425036    0.774692   -0.501048
   34          6             0        5.406642   -0.632027    0.089666
   35          6             0        4.032074   -1.291201    0.036491
   36          6             0        2.951471   -0.528590    0.809634
   37          6             0        2.693480    2.812871   -0.970620
   38          6             0        1.175476    2.884432   -0.914406
   39          6             0        0.629470    1.512239   -1.289236
   40          1             0        4.895621    2.772068    0.120021
   41          1             0        4.612956    1.539912    1.349300
   42          1             0        6.451013    1.148894   -0.489320
   43          1             0        5.092733    0.742826   -1.540719
   44          1             0        5.743498   -0.584421    1.129110
   45          1             0        6.118274   -1.254886   -0.457022
   46          1             0        3.708084   -1.400853   -0.999971
   47          1             0        4.114027   -2.294543    0.458431
   48          1             0        2.113056   -1.213113    0.990691
   49          1             0        3.340096   -0.185702    1.770407
   50          1             0        3.026584    2.670742   -2.008709
   51          1             0        3.133868    3.744931   -0.600419
   52          1             0        0.805191    3.651961   -1.594221
   53          1             0        0.864832    3.135590    0.101826
   54          1             0        0.854444    1.295384   -2.341673
   55          1             0       -0.456218    1.476769   -1.173939
   56          6             0        0.659577   -1.820633   -2.063711
   57          8             0        1.484905   -1.952949   -2.855154
   58          6             0       -0.197568   -2.537854    0.835046
   59          8             0       -0.768294   -3.347032    1.424255
 --------------------------------------------------------------------
     1 basis functions        1 primitive gaussians
     1 alpha electrons        1 beta electrons

 Harmonic frequencies (cm**-1), IR intensities (km*mol⁻¹),
 Raman scattering activities (A**4/amu), Raman depolarization ratios,
 reduced masses (AMU), force constants (mDyne/A) and normal coordinates:
                      1                      2                      3
                        a                      a                      a 
 Frequencies --    14.7858                19.2889                24.3873
 Red. masses --    12.6801                13.1125                13.8794
 Frc consts  --     0.0000                 0.0000                 0.0000
 IR Inten    --     0.7234                 1.1839                 0.3201
 Raman Activ --     0.0000                 0.0000                 0.0000
 Depolar     --     0.0000                 0.0000                 0.0000
 Atom AN      X      Y      Z        X      Y      Z        X      Y      Z
   1  28    -0.05  -0.06  -0.16    -0.01   0.15  -0.16     0.01  -0.10  -0.14
   2   7    -0.01  -0.03   0.01    -0.02   0.03  -0.02     0.02   0.03  -0.04
   3   6     0.04  -0.01   0.03     0.00   0.00   0.01     0.05   0.01  -0.01
   4   7     0.05   0.03   0.08    -0.01  -0.15   0.13     0.06   0.01   0.02
   5   6     0.11   0.07   0.08     0.03  -0.08   0.10     0.08  -0.03   0.06
   6   6     0.18   0.06   0.03    -0.07  -0.05  -0.05     0.07  -0.03   0.11
   7   6     0.20   0.02  -0.01    -0.06   0.10  -0.15     0.08  -0.04   0.07
   8   6     0.16  -0.04  -0.03    -0.06   0.13  -0.17     0.06  -0.01   0.01
   9   6     0.09  -0.04  -0.01     0.04   0.12  -0.08     0.07  -0.01  -0.03
  10   6     0.00   0.04   0.11    -0.08  -0.33   0.24     0.03   0.05   0.03
  11   6    -0.05   0.02   0.10     0.03  -0.27   0.22     0.00   0.06  -0.01
  12   6    -0.06  -0.01   0.04    -0.06  -0.07   0.06    -0.01   0.06  -0.03
  13   1     0.03   0.03   0.03     0.01  -0.05   0.06     0.02  -0.01   0.03
  14   1     0.04   0.02   0.02     0.04   0.01   0.03     0.03  -0.02   0.01
  15   1     0.06   0.03   0.01    -0.02  -0.01  -0.01     0.02  -0.02   0.04
  16   1     0.05   0.01   0.01    -0.05  -0.04  -0.02     0.01   0.00   0.04
  17   1     0.06   0.01  -0.00     0.01   0.05  -0.04     0.04  -0.02   0.02
  18   1     0.07   0.01  -0.01    -0.04   0.03  -0.07     0.02  -0.01   0.03
  19   1     0.04  -0.02  -0.01    -0.04   0.02  -0.06     0.01   0.00   0.01
  20   1     0.05  -0.02  -0.02    -0.02   0.06  -0.07     0.02  -0.00  -0.00
  21   1     0.02  -0.02  -0.01     0.01   0.05  -0.03     0.02   0.00  -0.02
  22   1     0.03  -0.00   0.00     0.04   0.05  -0.01     0.03  -0.01  -0.01
  23   1    -0.00   0.01   0.03    -0.09  -0.11   0.07     0.01   0.02   0.02
  24   1     0.00   0.02   0.04     0.00  -0.14   0.11     0.01   0.01   0.01
  25   1    -0.03   0.01   0.04    -0.01  -0.11   0.09    -0.01   0.02  -0.00
  26   1    -0.01   0.01   0.03     0.07  -0.07   0.07     0.00   0.01  -0.01
  27   1    -0.02  -0.01   0.01    -0.07  -0.02   0.02    -0.00   0.02  -0.00
  28   1    -0.03  -0.01   0.01     0.01   0.00  -0.00    -0.01   0.02  -0.02
  29   7    -0.05  -0.01  -0.06     0.06   0.03  -0.03     0.02  -0.07  -0.12
  30   6    -0.08   0.04   0.01     0.04  -0.01   0.01    -0.01  -0.04  -0.06
  31   7    -0.09   0.04  -0.01     0.08  -0.03   0.05    -0.06   0.01   0.05
  32   6    -0.11   0.08   0.09     0.06  -0.07   0.09    -0.10   0.09   0.19
  33   6    -0.05   0.03   0.22     0.06  -0.08   0.10     0.06   0.23   0.20
  34   6    -0.08   0.07   0.32     0.01  -0.09   0.07     0.09   0.17   0.06
  35   6    -0.07   0.06   0.27    -0.01  -0.05   0.02     0.14   0.09  -0.14
  36   6    -0.13   0.10   0.14    -0.01  -0.04   0.00     0.02  -0.08  -0.14
  37   6    -0.03  -0.04  -0.13     0.13   0.00   0.06    -0.05   0.01   0.04
  38   6    -0.03  -0.03  -0.23     0.13   0.04   0.01    -0.06  -0.04  -0.02
  39   6    -0.01  -0.06  -0.16     0.10   0.06  -0.03    -0.01  -0.04  -0.07
  40   1    -0.03   0.02   0.01     0.03  -0.02   0.03    -0.05   0.04   0.09
  41   1    -0.05   0.04   0.03     0.01  -0.03   0.02    -0.06  -0.00   0.05
  42   1    -0.01   0.01   0.08     0.02  -0.03   0.04     0.01   0.09   0.10
  43   1     0.01  -0.01   0.06     0.03  -0.02   0.02     0.06   0.09   0.05
  44   1    -0.04   0.04   0.10    -0.01  -0.03   0.02    -0.00   0.03   0.03
  45   1    -0.01   0.01   0.12     0.00  -0.03   0.02     0.05   0.08   0.02
  46   1     0.00  -0.01   0.07     0.00  -0.01   0.00     0.07   0.06  -0.05
  47   1    -0.03   0.03   0.10    -0.01  -0.02   0.00     0.05   0.01  -0.07
  48   1    -0.04   0.03   0.04    -0.01  -0.01  -0.01     0.02  -0.05  -0.08
  49   1    -0.06   0.05   0.04    -0.01  -0.02   0.01    -0.02  -0.04  -0.02
  50   1     0.01  -0.04  -0.03     0.04   0.00   0.02    -0.00   0.01   0.01
  51   1    -0.01  -0.00  -0.06     0.04  -0.01   0.03    -0.03   0.00   0.02
  52   1     0.00  -0.02  -0.09     0.05   0.02   0.00    -0.02  -0.01  -0.00
  53   1    -0.03   0.01  -0.08     0.03   0.01   0.00    -0.03  -0.02  -0.01
  54   1     0.01  -0.04  -0.04     0.04   0.02  -0.01     0.00  -0.00  -0.02
  55   1    -0.00  -0.02  -0.06     0.03   0.02  -0.02    -0.00  -0.02  -0.02
  56   6    -0.05   0.02  -0.10    -0.02   0.10  -0.09    -0.02  -0.20  -0.03
  57   8    -0.06   0.05  -0.13    -0.04   0.15  -0.12    -0.04  -0.42  -0.02
  58   6     0.05  -0.12  -0.14    -0.09   0.08  -0.07    -0.14   0.07   0.02
  59   8     0.14  -0.25  -0.23    -0.24   0.20  -0.08    -0.38   0.29   0.09
                      4                      5                      6
                        a                      a                      a 
 Frequencies --    32.6479                39.2877                41.1385
 Red. masses --    11.7796                15.9025                15.0815
 Frc consts  --     0.0000                 0.0000                 0.0000
 IR Inten    --     0.2400                 0.2357                 0.0987
 Raman Activ --     0.0000                 0.0000                 0.0000
 Depolar     --     0.0000                 0.0000                 0.0000
 Atom AN      X      Y      Z        X      Y      Z        X      Y      Z
   1  28     0.05   0.12  -0.03     0.03  -0.17   0.03    -0.03  -0.09   0.09
   2   7     0.04   0.09  -0.06     0.01  -0.11   0.02     0.01  -0.04   0.05
   3   6     0.02  -0.01  -0.01     0.02  -0.06  -0.00     0.01  -0.01   0.03
   4   7     0.02  -0.07   0.03     0.03   0.01  -0.05     0.02   0.02   0.02
   5   6     0.01  -0.19   0.09     0.01  -0.02  -0.03     0.03   0.11  -0.03
   6   6    -0.06  -0.18   0.20     0.03  -0.03   0.03     0.11   0.10  -0.10
   7   6    -0.05  -0.16   0.18     0.03  -0.07   0.04     0.10   0.05  -0.05
   8   6    -0.05  -0.05   0.11     0.03  -0.07   0.03     0.10  -0.03   0.01
   9   6     0.02  -0.04   0.02     0.01  -0.07   0.01     0.02  -0.03   0.04
  10   6     0.02  -0.02   0.01     0.06   0.10  -0.10     0.01  -0.03   0.05
  11   6     0.06   0.07  -0.11    -0.02   0.03  -0.04     0.01  -0.05   0.08
  12   6     0.04   0.16  -0.10     0.03  -0.12   0.02     0.00  -0.05   0.05
  13   1     0.00  -0.07   0.03     0.00  -0.00  -0.02     0.01   0.05  -0.01
  14   1     0.01  -0.07   0.01    -0.00  -0.02  -0.01    -0.01   0.04   0.00
  15   1    -0.02  -0.08   0.08     0.01  -0.01   0.01     0.03   0.05  -0.04
  16   1    -0.03  -0.03   0.07     0.01   0.00   0.01     0.05   0.01  -0.03
  17   1    -0.00  -0.07   0.04     0.01  -0.03   0.01     0.01   0.02  -0.01
  18   1    -0.03  -0.04   0.07     0.02  -0.02   0.02     0.04   0.01  -0.02
  19   1    -0.03   0.01   0.04     0.01  -0.02   0.01     0.05  -0.01   0.00
  20   1    -0.01  -0.01   0.03     0.01  -0.03   0.01     0.03  -0.02   0.01
  21   1     0.01   0.01  -0.01     0.00  -0.02   0.01     0.00  -0.03   0.02
  22   1     0.02  -0.03  -0.00    -0.00  -0.02   0.00    -0.01   0.00   0.01
  23   1    -0.01   0.01   0.02     0.06   0.03  -0.04    -0.01  -0.02   0.01
  24   1     0.01  -0.03   0.00     0.00   0.06  -0.05     0.01  -0.01   0.02
  25   1     0.02   0.03  -0.04    -0.00   0.02  -0.02     0.00  -0.02   0.03
  26   1     0.03   0.00  -0.05    -0.04   0.01  -0.00     0.01  -0.01   0.03
  27   1     0.00   0.07  -0.01     0.04  -0.05  -0.01    -0.00  -0.01   0.01
  28   1     0.02   0.06  -0.06    -0.01  -0.05   0.03     0.00  -0.01   0.02
  29   7    -0.02   0.07  -0.01    -0.01  -0.06  -0.02    -0.06  -0.01   0.00
  30   6    -0.01   0.07  -0.02    -0.01  -0.04  -0.02    -0.04  -0.01  -0.03
  31   7     0.03   0.02  -0.14    -0.01  -0.05  -0.06    -0.06  -0.00  -0.03
  32   6     0.05  -0.01  -0.18    -0.03  -0.00   0.00    -0.06   0.02  -0.02
  33   6    -0.04  -0.16  -0.08     0.03   0.01   0.06    -0.03   0.06  -0.05
  34   6    -0.09  -0.08   0.11     0.03   0.02   0.08    -0.01   0.04  -0.10
  35   6    -0.12  -0.03   0.22     0.04  -0.01   0.03    -0.00   0.02  -0.12
  36   6    -0.07   0.13   0.12     0.00  -0.03  -0.00    -0.01  -0.04  -0.08
  37   6     0.06  -0.03  -0.22    -0.01  -0.09  -0.11    -0.07  -0.01  -0.02
  38   6     0.06   0.03  -0.19    -0.01  -0.07  -0.09    -0.07  -0.01   0.01
  39   6     0.00   0.02  -0.08    -0.02  -0.08  -0.03    -0.08  -0.01   0.02
  40   1     0.03  -0.01  -0.09    -0.01   0.00  -0.00    -0.02   0.01   0.00
  41   1     0.02   0.04  -0.04    -0.02   0.01   0.00    -0.02  -0.01  -0.01
  42   1    -0.01  -0.06  -0.05     0.01   0.01   0.03    -0.01   0.02  -0.01
  43   1    -0.02  -0.08  -0.02     0.02  -0.00   0.01    -0.01   0.02  -0.02
  44   1    -0.02   0.01   0.03    -0.00   0.01   0.03    -0.00   0.00  -0.03
  45   1    -0.04  -0.05   0.05     0.02   0.01   0.03    -0.00   0.02  -0.03
  46   1    -0.04  -0.05   0.07     0.02  -0.00   0.01     0.00   0.02  -0.04
  47   1    -0.05   0.01   0.11     0.01  -0.00   0.01     0.01   0.00  -0.05
  48   1    -0.03   0.06   0.06     0.00  -0.01  -0.01    -0.00  -0.02  -0.03
  49   1    -0.01   0.07   0.02    -0.01  -0.00   0.00    -0.00  -0.02  -0.02
  50   1     0.01  -0.04  -0.06    -0.01  -0.04  -0.03    -0.03  -0.00  -0.01
  51   1     0.03  -0.01  -0.09     0.00  -0.02  -0.05    -0.02  -0.00  -0.01
  52   1     0.02  -0.00  -0.07    -0.00  -0.03  -0.04    -0.02  -0.00   0.00
  53   1     0.03   0.03  -0.06     0.00  -0.01  -0.03    -0.01  -0.00   0.00
  54   1    -0.01  -0.02  -0.02    -0.02  -0.03  -0.01    -0.03  -0.00   0.00
  55   1     0.00   0.02  -0.01    -0.01  -0.02  -0.00    -0.02  -0.00   0.01
  56   6     0.11  -0.01   0.04    -0.02   0.15  -0.06     0.21   0.04   0.10
  57   8     0.22  -0.10   0.16    -0.09   0.64  -0.23     0.47   0.28   0.33
  58   6    -0.09   0.08  -0.01    -0.03   0.04   0.12    -0.17  -0.12  -0.05
  59   8    -0.24   0.19  -0.02    -0.17   0.31   0.36    -0.42  -0.13  -0.27
                      7                      8                      9
                        a                      a                      a 
 Frequencies --    47.4971                55.7109                59.3032
 Red. masses --    13.6458                 9.1702                15.6641
 Frc consts  --     0.0000                 0.0000                 0.0000
 IR Inten    --     0.0691                 0.0492                 0.7333
 Raman Activ --     0.0000                 0.0000                 0.0000
 Depolar     --     0.0000                 0.0000                 0.0000
 Atom AN      X      Y      Z        X      Y      Z        X      Y      Z
   1  28     0.20  -0.06  -0.12     0.07   0.00  -0.05    -0.14  -0.09  -0.17
   2   7     0.08  -0.09   0.02    -0.02  -0.15   0.05    -0.01   0.07  -0.13
   3   6     0.07  -0.04  -0.00     0.03   0.03  -0.03     0.04   0.04  -0.08
   4   7     0.08  -0.00  -0.03     0.04   0.12  -0.04     0.05   0.02   0.01
   5   6     0.08   0.06  -0.06     0.03  -0.10   0.07     0.11  -0.06   0.09
   6   6     0.14   0.05  -0.10    -0.15  -0.07   0.25     0.03  -0.05   0.12
   7   6     0.13   0.01  -0.06    -0.08   0.01   0.06     0.08   0.02  -0.03
   8   6     0.13  -0.06  -0.01    -0.14   0.17  -0.14     0.02   0.09  -0.16
   9   6     0.07  -0.06   0.01     0.06   0.16  -0.13     0.10   0.08  -0.15
  10   6     0.09  -0.01  -0.03     0.11   0.28  -0.15    -0.02   0.02   0.07
  11   6     0.06  -0.06   0.03    -0.14   0.02   0.12    -0.04   0.05  -0.00
  12   6     0.07  -0.11   0.03    -0.03  -0.39   0.17    -0.07   0.08  -0.09
  13   1     0.02   0.03  -0.02     0.01  -0.07   0.04     0.03  -0.04   0.05
  14   1     0.01   0.02  -0.01     0.05  -0.05  -0.00     0.06  -0.02   0.01
  15   1     0.04   0.03  -0.04    -0.03  -0.07   0.13     0.02  -0.03   0.07
  16   1     0.06   0.00  -0.03    -0.11   0.02   0.09    -0.03  -0.00   0.04
  17   1     0.02   0.01  -0.01     0.03  -0.02   0.01     0.06   0.00  -0.01
  18   1     0.05   0.00  -0.02    -0.05   0.01   0.03     0.01   0.01  -0.01
  19   1     0.05  -0.02  -0.00    -0.11   0.05  -0.04    -0.03   0.02  -0.05
  20   1     0.04  -0.03   0.01    -0.03   0.09  -0.09     0.02   0.04  -0.08
  21   1     0.02  -0.03   0.01     0.02   0.08  -0.06     0.03   0.04  -0.06
  22   1     0.01  -0.01   0.00     0.06   0.04  -0.03     0.06   0.02  -0.04
  23   1     0.04  -0.01  -0.02     0.15   0.06  -0.08    -0.03   0.01   0.03
  24   1     0.02   0.01  -0.01    -0.01   0.19  -0.09     0.00  -0.01   0.04
  25   1     0.02  -0.02   0.01    -0.04   0.00   0.03    -0.03   0.02   0.01
  26   1     0.01  -0.01   0.02    -0.12   0.04   0.08     0.01   0.01  -0.01
  27   1     0.03  -0.04  -0.00     0.06  -0.20  -0.03    -0.04   0.03  -0.02
  28   1     0.02  -0.04   0.02    -0.04  -0.18   0.16    -0.02   0.03  -0.04
  29   7    -0.04   0.04   0.08     0.01   0.02   0.00    -0.05  -0.05  -0.09
  30   6    -0.06   0.07   0.12     0.01   0.01   0.00    -0.08  -0.05  -0.01
  31   7    -0.09   0.10   0.15     0.02   0.01   0.01    -0.10  -0.02   0.10
  32   6    -0.01   0.01  -0.08     0.02  -0.00  -0.00    -0.09  -0.06   0.08
  33   6    -0.22  -0.09  -0.20     0.00  -0.02  -0.01    -0.12  -0.04   0.01
  34   6    -0.16  -0.05  -0.11    -0.00  -0.02   0.00    -0.11  -0.07  -0.05
  35   6    -0.18  -0.03   0.14    -0.01  -0.01   0.01    -0.11  -0.06  -0.05
  36   6    -0.07   0.10   0.17     0.00   0.01   0.01    -0.09  -0.07  -0.02
  37   6    -0.12   0.15   0.23     0.02   0.02   0.02    -0.08   0.04   0.16
  38   6    -0.13   0.04   0.15     0.02   0.02   0.02    -0.08  -0.03   0.04
  39   6    -0.01   0.02   0.04     0.01   0.03   0.01     0.00  -0.03  -0.09
  40   1     0.01  -0.01  -0.05     0.01  -0.00  -0.00    -0.02  -0.02   0.03
  41   1     0.04   0.01  -0.02     0.01  -0.00  -0.00    -0.02  -0.03   0.02
  42   1    -0.06  -0.04  -0.13     0.00  -0.01  -0.01    -0.03  -0.01  -0.00
  43   1    -0.13  -0.04  -0.04    -0.00  -0.01  -0.00    -0.04   0.00   0.01
  44   1    -0.00   0.00  -0.05     0.00  -0.00   0.00    -0.02  -0.03  -0.01
  45   1    -0.08  -0.03  -0.05    -0.00  -0.01   0.00    -0.03  -0.01  -0.03
  46   1    -0.09  -0.04   0.06    -0.00  -0.00   0.00    -0.03  -0.01  -0.01
  47   1    -0.05   0.01   0.08    -0.00  -0.00   0.01    -0.03  -0.02  -0.02
  48   1    -0.03   0.05   0.08    -0.00   0.01   0.00    -0.03  -0.02  -0.01
  49   1     0.01   0.05   0.03     0.00   0.00   0.00    -0.02  -0.02  -0.01
  50   1    -0.01   0.08   0.07     0.01   0.01   0.01     0.01   0.05   0.05
  51   1    -0.06   0.04   0.11     0.01   0.00   0.01    -0.04   0.01   0.09
  52   1    -0.04   0.02   0.05     0.01   0.01   0.01    -0.02   0.00   0.02
  53   1    -0.06  -0.01   0.04     0.01   0.00   0.01    -0.05  -0.03   0.01
  54   1     0.03   0.02   0.02     0.00   0.01   0.00     0.03   0.01  -0.02
  55   1    -0.01  -0.01  -0.02     0.00   0.01   0.00    -0.00  -0.02  -0.06
  56   6     0.03  -0.04  -0.07     0.06  -0.02  -0.00     0.11  -0.00  -0.01
  57   8    -0.09  -0.15  -0.19     0.08  -0.06   0.01     0.37   0.12   0.21
  58   6     0.00   0.03  -0.02    -0.00  -0.03  -0.05     0.07   0.05   0.03
  59   8    -0.21   0.23   0.04    -0.08  -0.06  -0.18     0.36   0.09   0.35
                     10                     11                     12
                        a                      a                      a 
 Frequencies --    69.9193                81.5550                87.4517
 Red. masses --    15.6452                11.3730                15.8365
 Frc consts  --     0.0000                 0.0000                 0.0000
 IR Inten    --     0.7167                 1.0065                 2.2622
 Raman Activ --     0.0000                 0.0000                 0.0000
 Depolar     --     0.0000                 0.0000                 0.0000
 Atom AN      X      Y      Z        X      Y      Z        X      Y      Z
   1  28     0.05  -0.21   0.21     0.15  -0.07   0.01    -0.00   0.10   0.32
   2   7     0.14   0.18  -0.06     0.17   0.05   0.10    -0.06  -0.10  -0.06
   3   6     0.11   0.10  -0.03     0.10   0.06   0.05    -0.01  -0.15  -0.01
   4   7     0.11   0.00   0.02     0.09   0.03  -0.02    -0.01  -0.19   0.08
   5   6     0.08  -0.10   0.07    -0.00   0.00  -0.05     0.07  -0.12   0.08
   6   6    -0.11  -0.06   0.08    -0.06   0.01  -0.02     0.07  -0.11  -0.03
   7   6    -0.08   0.10  -0.05    -0.10   0.05   0.07     0.12  -0.06  -0.18
   8   6    -0.08   0.21  -0.13    -0.03   0.10   0.13     0.06  -0.13  -0.21
   9   6     0.10   0.20  -0.06     0.03   0.09   0.10     0.04  -0.13  -0.06
  10   6     0.08  -0.02   0.03     0.14  -0.05  -0.04    -0.02   0.09  -0.00
  11   6     0.17   0.09  -0.09     0.22  -0.06   0.03    -0.13   0.11  -0.14
  12   6     0.14   0.23  -0.09     0.22  -0.00   0.07    -0.08  -0.01  -0.07
  13   1     0.03  -0.07   0.04     0.00  -0.01  -0.03     0.02  -0.04   0.05
  14   1     0.06  -0.02   0.01    -0.01   0.00  -0.01     0.04  -0.02   0.02
  15   1    -0.03  -0.05   0.05    -0.03  -0.00  -0.02     0.03  -0.02   0.00
  16   1    -0.08  -0.01   0.03    -0.00   0.00  -0.01    -0.01  -0.05  -0.01
  17   1     0.01   0.04  -0.01    -0.04   0.01   0.02     0.06   0.01  -0.04
  18   1    -0.06   0.04  -0.03    -0.04   0.02   0.03     0.03  -0.01  -0.08
  19   1    -0.06   0.05  -0.04     0.00   0.03   0.04    -0.00  -0.06  -0.07
  20   1    -0.02   0.10  -0.06    -0.02   0.04   0.05     0.03  -0.02  -0.09
  21   1     0.04   0.08  -0.02     0.01   0.04   0.04     0.01  -0.05  -0.03
  22   1     0.05   0.06  -0.01    -0.00   0.02   0.02     0.02  -0.02  -0.01
  23   1    -0.01   0.01   0.03     0.04  -0.02  -0.02     0.03   0.06   0.03
  24   1     0.04  -0.04   0.02     0.04  -0.02  -0.02    -0.02   0.04  -0.02
  25   1     0.05   0.03  -0.03     0.07  -0.03   0.00    -0.04   0.08  -0.06
  26   1     0.07   0.01  -0.05     0.07  -0.01   0.02    -0.07   0.01  -0.07
  27   1     0.02   0.10  -0.00     0.06  -0.00   0.02     0.01   0.00  -0.02
  28   1     0.05   0.09  -0.06     0.08   0.00   0.03    -0.05  -0.01  -0.02
  29   7     0.03  -0.12   0.02    -0.15   0.10  -0.04     0.04   0.10  -0.00
  30   6     0.01  -0.04   0.04    -0.14   0.03  -0.00    -0.00   0.09   0.08
  31   7    -0.06   0.00   0.04    -0.10  -0.00   0.08     0.01   0.10   0.19
  32   6    -0.03   0.04  -0.05    -0.12  -0.08   0.19     0.02   0.00   0.14
  33   6    -0.07   0.04  -0.09    -0.08  -0.01   0.14    -0.05   0.06  -0.01
  34   6     0.02   0.06  -0.04    -0.20  -0.10  -0.09    -0.08  -0.01  -0.19
  35   6     0.05  -0.00   0.07    -0.24  -0.01  -0.23    -0.12   0.06  -0.14
  36   6     0.05  -0.00   0.07    -0.19  -0.06  -0.10    -0.03   0.04   0.02
  37   6    -0.11  -0.01   0.06     0.07  -0.10  -0.14     0.15   0.03   0.01
  38   6    -0.12  -0.12   0.00     0.08   0.10  -0.15     0.15   0.07  -0.20
  39   6     0.00  -0.16  -0.03    -0.11   0.13  -0.00     0.13   0.05  -0.12
  40   1    -0.02   0.01  -0.03    -0.03  -0.02   0.10     0.01   0.00   0.08
  41   1     0.01   0.02  -0.01    -0.06  -0.06   0.05     0.01  -0.04   0.03
  42   1    -0.02   0.02  -0.06    -0.02  -0.02   0.09    -0.01   0.00  -0.00
  43   1    -0.05  -0.00  -0.02     0.01   0.05   0.03    -0.03   0.06  -0.00
  44   1     0.02   0.03  -0.02    -0.07  -0.08  -0.02     0.00  -0.05  -0.06
  45   1     0.00   0.02  -0.02    -0.07  -0.02  -0.05    -0.05   0.00  -0.10
  46   1     0.00  -0.02   0.03    -0.07   0.06  -0.07    -0.06   0.05  -0.03
  47   1     0.03   0.01   0.04    -0.09  -0.03  -0.12    -0.04   0.00  -0.07
  48   1     0.02  -0.00   0.03    -0.06  -0.02  -0.05    -0.01   0.02   0.01
  49   1     0.02   0.01   0.01    -0.05  -0.05  -0.02     0.02  -0.01   0.01
  50   1    -0.02   0.02   0.02     0.01  -0.10  -0.03     0.08  -0.02   0.02
  51   1    -0.06   0.00   0.03     0.06  -0.03  -0.10     0.04   0.01  -0.01
  52   1    -0.04  -0.04  -0.00     0.05   0.02  -0.07     0.08   0.00  -0.10
  53   1    -0.05  -0.05  -0.00     0.03   0.08  -0.05     0.01   0.06  -0.08
  54   1     0.03  -0.04  -0.00    -0.08   0.01  -0.00     0.06  -0.01  -0.02
  55   1    -0.00  -0.07  -0.03    -0.03   0.08   0.04     0.04   0.03  -0.06
  56   6    -0.05  -0.04   0.06     0.04  -0.04  -0.00    -0.04   0.00   0.14
  57   8    -0.21   0.17  -0.13    -0.03  -0.02  -0.09    -0.15   0.03   0.06
  58   6    -0.09  -0.11   0.06     0.06  -0.02   0.02    -0.02   0.02   0.13
  59   8    -0.15  -0.24  -0.13     0.07  -0.03   0.01    -0.08  -0.07  -0.03
                     13                     14                     15
                        a                      a                      a 
 Frequencies --    90.8267                96.7871                98.4252
 Red. masses --    12.4748                10.0588                12.5160
 Frc consts  --     0.0000                 0.0000                 0.0000
 IR Inten    --     0.8533                 0.0785                 0.9355
 Raman Activ --     0.0000                 0.0000                 0.0000
 Depolar     --     0.0000                 0.0000                 0.0000
 Atom AN      X      Y      Z        X      Y      Z        X      Y      Z
   1  28    -0.07   0.02   0.20     0.00  -0.05  -0.10    -0.02   0.01  -0.22
   2   7    -0.03   0.02  -0.23    -0.01  -0.02  -0.06    -0.04   0.04   0.03
   3   6     0.01   0.11  -0.25     0.03  -0.05  -0.02    -0.05   0.05   0.01
   4   7     0.03   0.24  -0.29     0.03  -0.09   0.07    -0.06   0.08  -0.02
   5   6     0.06   0.05  -0.15     0.09  -0.06   0.07    -0.08   0.06  -0.02
   6   6     0.14   0.02   0.17     0.03  -0.04  -0.04    -0.06   0.05   0.04
   7   6     0.16  -0.15   0.21     0.07   0.06  -0.17    -0.07   0.01   0.08
   8   6     0.09   0.01   0.00     0.03   0.02  -0.20    -0.06   0.02   0.09
   9   6     0.06   0.03  -0.25     0.06   0.01  -0.07    -0.07   0.03   0.04
  10   6    -0.08  -0.19  -0.04     0.00   0.05   0.04    -0.06  -0.01   0.01
  11   6     0.02  -0.24   0.11    -0.05   0.09  -0.07    -0.02  -0.02   0.06
  12   6    -0.09  -0.08  -0.12    -0.04   0.05  -0.06    -0.04   0.01   0.03
  13   1     0.02   0.04  -0.06     0.03  -0.03   0.05    -0.02   0.02  -0.02
  14   1     0.00  -0.04  -0.06     0.06   0.00   0.02    -0.03   0.01  -0.00
  15   1     0.05  -0.03   0.08     0.02  -0.01  -0.00    -0.02   0.01   0.01
  16   1     0.04   0.07   0.08    -0.02  -0.03  -0.02    -0.01   0.02   0.01
  17   1     0.05  -0.12   0.03     0.05   0.04  -0.04    -0.03  -0.01   0.02
  18   1     0.05  -0.05   0.14     0.01   0.02  -0.08    -0.02   0.00   0.04
  19   1     0.00   0.06   0.02    -0.02  -0.02  -0.07    -0.01   0.02   0.03
  20   1     0.04  -0.02  -0.00     0.02   0.02  -0.09    -0.02  -0.00   0.03
  21   1     0.01   0.02  -0.10     0.02   0.00  -0.02    -0.02   0.01   0.02
  22   1     0.03  -0.03  -0.09     0.03   0.02  -0.01    -0.03   0.00   0.01
  23   1    -0.10  -0.10  -0.06     0.01   0.03   0.03    -0.03  -0.01  -0.01
  24   1     0.01  -0.08   0.05     0.00   0.01   0.01    -0.01  -0.01   0.01
  25   1    -0.02  -0.14   0.07    -0.02   0.06  -0.03    -0.01  -0.02   0.02
  26   1     0.07  -0.03   0.07    -0.03   0.01  -0.04     0.00   0.00   0.03
  27   1    -0.09  -0.02  -0.04    -0.00   0.03  -0.01    -0.02   0.00   0.01
  28   1    -0.01  -0.01  -0.05    -0.02   0.02  -0.03    -0.01   0.01   0.01
  29   7    -0.02   0.06   0.09    -0.12   0.05   0.32     0.11  -0.13   0.15
  30   6    -0.00   0.04   0.05    -0.04   0.00   0.12     0.05  -0.03   0.23
  31   7     0.01   0.03   0.02    -0.01  -0.04  -0.03    -0.04   0.06   0.33
  32   6     0.01   0.02   0.01    -0.01   0.01  -0.02     0.01   0.03   0.13
  33   6     0.00   0.02  -0.01     0.03   0.03   0.01    -0.10   0.14  -0.14
  34   6    -0.01   0.01  -0.03     0.03   0.04   0.01     0.04   0.09  -0.25
  35   6    -0.02   0.03  -0.02     0.02   0.04   0.01     0.04   0.04   0.02
  36   6     0.00   0.03   0.03     0.03  -0.00   0.07     0.13  -0.01   0.21
  37   6     0.03  -0.02  -0.05    -0.02  -0.19  -0.23     0.08  -0.20  -0.08
  38   6     0.04   0.05   0.01     0.01   0.05   0.16     0.07  -0.16  -0.25
  39   6    -0.04   0.05   0.10    -0.27   0.08   0.44     0.08  -0.23   0.01
  40   1     0.00   0.01   0.01    -0.01   0.01  -0.01    -0.01   0.02   0.07
  41   1     0.00  -0.00   0.00    -0.01   0.01  -0.01     0.04  -0.03   0.02
  42   1     0.00   0.00   0.00     0.01   0.01   0.01    -0.03   0.04  -0.09
  43   1     0.00   0.01  -0.00     0.02   0.01  -0.00    -0.09   0.06  -0.02
  44   1     0.00  -0.00  -0.01     0.01   0.01   0.00     0.08   0.00  -0.09
  45   1    -0.01   0.00  -0.02     0.01   0.01   0.00    -0.02   0.04  -0.13
  46   1    -0.01   0.02  -0.00     0.00   0.02   0.00    -0.04   0.00   0.02
  47   1    -0.01   0.01  -0.01     0.01   0.01  -0.01     0.05   0.01   0.00
  48   1     0.00   0.01   0.01     0.02  -0.01   0.03     0.05  -0.01   0.08
  49   1     0.01   0.00   0.01     0.02  -0.00   0.02     0.07  -0.00   0.05
  50   1    -0.00  -0.04  -0.02    -0.09  -0.16  -0.08     0.05  -0.15  -0.00
  51   1     0.03  -0.00  -0.04     0.07  -0.05  -0.18     0.02  -0.03  -0.09
  52   1     0.01   0.01  -0.00    -0.02   0.00   0.05     0.04  -0.09  -0.13
  53   1     0.03   0.03   0.00     0.09   0.06   0.06    -0.00   0.03  -0.10
  54   1    -0.04   0.00   0.03    -0.19  -0.00   0.11     0.01  -0.12   0.01
  55   1    -0.01   0.03   0.05    -0.07   0.06   0.23     0.02  -0.06   0.01
  56   6    -0.03  -0.01   0.10     0.05   0.04  -0.04     0.02   0.05  -0.10
  57   8    -0.14   0.02  -0.00     0.03  -0.08  -0.06     0.12  -0.02  -0.00
  58   6    -0.06   0.01   0.10    -0.01  -0.02  -0.05     0.00  -0.00  -0.12
  59   8    -0.03  -0.09   0.01     0.02   0.05   0.06     0.03   0.08   0.00
                     16                     17                     18
                        a                      a                      a 
 Frequencies --   159.5534               170.3977               176.5112
 Red. masses --    23.6781                32.3195                10.9511
 Frc consts  --     0.0000                 0.0000                 0.0000
 IR Inten    --     0.5582                 0.3808                 1.4442
 Raman Activ --     0.0000                 0.0000                 0.0000
 Depolar     --     0.0000                 0.0000                 0.0000
 Atom AN      X      Y      Z        X      Y      Z        X      Y      Z
   1  28    -0.48   0.22  -0.04    -0.33  -0.56  -0.16     0.18   0.09   0.07
   2   7     0.09   0.15  -0.11     0.00  -0.02   0.03    -0.02  -0.03   0.01
   3   6     0.12   0.06  -0.04     0.01   0.01   0.02    -0.02  -0.02   0.00
   4   7     0.09  -0.24   0.09     0.01   0.01   0.02    -0.02   0.02  -0.01
   5   6     0.09  -0.12   0.01    -0.01   0.02   0.01    -0.01   0.02  -0.00
   6   6     0.09  -0.10  -0.21    -0.04   0.02  -0.03     0.00   0.01   0.02
   7   6    -0.03  -0.04   0.02    -0.07   0.03   0.02     0.02  -0.00  -0.01
   8   6     0.14   0.05   0.19    -0.03   0.02   0.06    -0.01  -0.02  -0.04
   9   6     0.15   0.06  -0.05     0.00   0.02   0.02    -0.02  -0.02   0.00
  10   6     0.20   0.04  -0.09    -0.01   0.01   0.03    -0.04  -0.01   0.02
  11   6     0.10  -0.06   0.00    -0.01   0.02   0.01    -0.03   0.01  -0.01
  12   6     0.12  -0.18   0.02    -0.01   0.03   0.01    -0.03   0.02  -0.00
  13   1     0.03  -0.05   0.02    -0.00  -0.00   0.00    -0.00   0.01  -0.00
  14   1     0.04  -0.00   0.01     0.00   0.01   0.00    -0.01   0.00  -0.00
  15   1    -0.01   0.01  -0.13    -0.02   0.01  -0.02     0.01   0.00   0.02
  16   1     0.09  -0.09  -0.09    -0.00  -0.00  -0.01    -0.01   0.01   0.01
  17   1    -0.05  -0.02   0.00    -0.03   0.01   0.01     0.01  -0.00  -0.00
  18   1    -0.03  -0.01   0.02    -0.02   0.01   0.01     0.01  -0.00  -0.00
  19   1     0.11   0.06   0.07     0.01   0.01   0.02    -0.02  -0.01  -0.01
  20   1     0.01  -0.01   0.13    -0.02   0.01   0.03     0.00  -0.00  -0.02
  21   1     0.05   0.04  -0.04     0.00   0.02  -0.00    -0.01  -0.01   0.00
  22   1     0.06  -0.02  -0.03     0.01  -0.00   0.00    -0.01   0.00   0.00
  23   1     0.15   0.02  -0.03    -0.01   0.00   0.01    -0.03  -0.00   0.01
  24   1     0.02   0.07  -0.08     0.00  -0.00   0.01    -0.01  -0.01   0.01
  25   1     0.03  -0.02   0.00    -0.00   0.01   0.00    -0.01   0.01  -0.01
  26   1     0.00  -0.00   0.02    -0.00   0.00  -0.00    -0.01  -0.00  -0.01
  27   1     0.05  -0.12  -0.06    -0.00   0.02   0.01    -0.01   0.01   0.01
  28   1     0.04  -0.08   0.09    -0.01   0.01  -0.01    -0.01   0.01  -0.01
  29   7     0.01  -0.03  -0.01     0.05   0.15  -0.06     0.04  -0.01  -0.27
  30   6     0.00  -0.04  -0.00     0.05   0.12  -0.02     0.01  -0.09  -0.17
  31   7    -0.03  -0.01   0.05     0.09   0.13   0.06    -0.12   0.06   0.24
  32   6    -0.02  -0.01   0.01     0.11   0.04  -0.00    -0.08  -0.07   0.10
  33   6    -0.05   0.02  -0.06     0.01   0.04  -0.10    -0.26  -0.01  -0.17
  34   6     0.04   0.04  -0.00     0.04   0.07  -0.02     0.10   0.09   0.06
  35   6     0.07  -0.02   0.07     0.03   0.07   0.09     0.22  -0.18   0.22
  36   6     0.01  -0.04   0.00    -0.01   0.12  -0.00    -0.06  -0.16  -0.19
  37   6    -0.00  -0.05  -0.01     0.19   0.13   0.01     0.04  -0.08  -0.04
  38   6    -0.00  -0.02   0.01     0.20   0.21   0.01     0.05   0.10   0.01
  39   6    -0.02  -0.01   0.02     0.09   0.23   0.03    -0.10   0.15   0.03
  40   1    -0.01   0.00   0.01     0.04   0.01   0.01    -0.02  -0.01   0.08
  41   1     0.00  -0.01  -0.00     0.04  -0.01  -0.01    -0.01  -0.08   0.01
  42   1    -0.02   0.02  -0.05     0.01   0.01  -0.07    -0.09   0.03  -0.19
  43   1    -0.04  -0.01  -0.01    -0.03  -0.00  -0.02    -0.20  -0.06  -0.01
  44   1     0.02   0.03  -0.01     0.03   0.04  -0.01     0.04   0.10   0.01
  45   1     0.01   0.01  -0.00    -0.00   0.01  -0.01     0.05   0.04   0.04
  46   1     0.02  -0.04   0.02     0.01  -0.02   0.03     0.10  -0.19   0.07
  47   1     0.04   0.00   0.04     0.01   0.04   0.06     0.11  -0.00   0.18
  48   1     0.01  -0.02  -0.01    -0.01   0.04  -0.02    -0.02  -0.06  -0.13
  49   1    -0.01  -0.01   0.01    -0.02   0.03   0.01    -0.11  -0.05  -0.02
  50   1    -0.01  -0.03  -0.00     0.06   0.02   0.01    -0.01  -0.11  -0.01
  51   1     0.01  -0.01  -0.02     0.07   0.03  -0.00     0.05  -0.02  -0.08
  52   1    -0.00  -0.01   0.00     0.07   0.06  -0.00     0.03   0.04   0.00
  53   1     0.01  -0.00   0.00     0.06   0.07   0.00     0.04   0.04   0.01
  54   1    -0.02  -0.00   0.00    -0.00   0.07   0.00    -0.12   0.07  -0.01
  55   1    -0.00  -0.00   0.02     0.03   0.09   0.03    -0.02   0.06   0.09
  56   6    -0.16   0.03   0.03     0.07  -0.12  -0.02     0.01  -0.09   0.04
  57   8    -0.08   0.01   0.16     0.04   0.00  -0.09    -0.01   0.05   0.00
  58   6    -0.11   0.09  -0.01    -0.13  -0.15   0.05     0.06   0.09   0.08
  59   8     0.05  -0.01  -0.01    -0.06  -0.15   0.18     0.02   0.01  -0.08
                     19                     20                     21
                        a                      a                      a 
 Frequencies --   186.6452               213.0503               229.5144
 Red. masses --    16.0168                16.7320                10.4720
 Frc consts  --     0.0000                 0.0000                 0.0000
 IR Inten    --     1.3387                 2.5286                 0.3894
 Raman Activ --     0.0000                 0.0000                 0.0000
 Depolar     --     0.0000                 0.0000                 0.0000
 Atom AN      X      Y      Z        X      Y      Z        X      Y      Z
   1  28    -0.35   0.09  -0.03    -0.22   0.09  -0.20     0.01   0.09   0.03
   2   7     0.11  -0.09   0.17     0.03  -0.03   0.05     0.00   0.08  -0.04
   3   6     0.02  -0.10   0.12     0.01  -0.05   0.05    -0.00   0.01  -0.01
   4   7     0.05   0.15  -0.12     0.02   0.04  -0.01    -0.00   0.01   0.01
   5   6    -0.05   0.01  -0.06    -0.01   0.01  -0.00    -0.00  -0.02   0.02
   6   6    -0.00  -0.01   0.23    -0.00   0.01   0.06    -0.01  -0.02   0.01
   7   6     0.15  -0.01  -0.11     0.04   0.02  -0.03     0.01   0.01  -0.04
   8   6    -0.03  -0.10  -0.28    -0.02  -0.06  -0.04     0.01  -0.04   0.00
   9   6    -0.06  -0.11   0.17    -0.05  -0.07   0.10    -0.03  -0.04   0.04
  10   6     0.12  -0.06  -0.11     0.03   0.00  -0.01     0.03   0.04  -0.03
  11   6     0.25  -0.07  -0.01     0.05  -0.01   0.03     0.02  -0.02   0.08
  12   6     0.22   0.04   0.03     0.04   0.01   0.01    -0.01   0.00  -0.00
  13   1    -0.02   0.03  -0.06    -0.00   0.01  -0.01    -0.00  -0.01   0.01
  14   1    -0.06  -0.04  -0.03    -0.02  -0.01  -0.00     0.00  -0.01   0.00
  15   1     0.04  -0.06   0.17     0.01  -0.01   0.05     0.00  -0.01   0.01
  16   1    -0.10   0.07   0.10    -0.03   0.02   0.03    -0.02  -0.01   0.00
  17   1     0.11   0.02  -0.02     0.03   0.03  -0.00     0.01   0.03  -0.00
  18   1     0.05  -0.00  -0.07     0.02   0.01  -0.04     0.00   0.01  -0.04
  19   1    -0.10  -0.11  -0.11    -0.02  -0.05  -0.02     0.01  -0.02  -0.00
  20   1     0.02   0.03  -0.19     0.00  -0.01  -0.04     0.00  -0.02   0.00
  21   1    -0.02  -0.08   0.11    -0.01  -0.03   0.06    -0.01  -0.02   0.03
  22   1    -0.07   0.04   0.07    -0.04   0.00   0.03    -0.03  -0.01   0.01
  23   1     0.02  -0.04  -0.05     0.01  -0.01  -0.01     0.04   0.00  -0.02
  24   1     0.03  -0.03  -0.04     0.01   0.00  -0.01    -0.00   0.04  -0.02
  25   1     0.08  -0.05   0.00     0.01  -0.02   0.01    -0.00  -0.04   0.04
  26   1     0.09  -0.01   0.01     0.02   0.00   0.02     0.02   0.02   0.05
  27   1     0.06   0.05   0.04     0.01   0.01   0.01    -0.02  -0.01  -0.01
  28   1     0.08   0.03  -0.02     0.01   0.01  -0.01     0.00   0.00   0.01
  29   7    -0.02   0.01   0.01     0.00  -0.03   0.03    -0.17   0.12   0.30
  30   6    -0.00  -0.01  -0.00    -0.00  -0.01   0.04    -0.06  -0.03   0.06
  31   7     0.00  -0.01   0.00     0.01  -0.03  -0.01    -0.05  -0.05   0.01
  32   6     0.00  -0.01  -0.00     0.01   0.00  -0.00    -0.01  -0.06  -0.09
  33   6    -0.00   0.01  -0.03     0.03   0.00   0.02    -0.02  -0.07  -0.09
  34   6     0.03   0.03  -0.00    -0.00  -0.02  -0.03     0.10   0.04   0.14
  35   6     0.04   0.00   0.03    -0.02   0.02  -0.00     0.14  -0.04  -0.07
  36   6     0.00  -0.01  -0.01     0.02   0.02   0.06    -0.01  -0.16  -0.13
  37   6     0.02   0.01   0.01    -0.02  -0.03  -0.00    -0.01   0.09   0.16
  38   6     0.02   0.03  -0.01    -0.02  -0.05   0.04    -0.03   0.08  -0.30
  39   6     0.01   0.03   0.00    -0.00  -0.05   0.02    -0.03  -0.01   0.03
  40   1    -0.00  -0.00   0.01    -0.00   0.00  -0.01    -0.01  -0.02  -0.03
  41   1     0.00  -0.01  -0.00     0.00   0.01   0.00     0.01  -0.02  -0.03
  42   1    -0.00   0.01  -0.02     0.01  -0.00   0.03    -0.02   0.01  -0.08
  43   1    -0.01  -0.00  -0.01     0.03   0.01   0.00    -0.04  -0.07  -0.01
  44   1     0.01   0.02  -0.00     0.01  -0.02  -0.01    -0.03   0.07   0.06
  45   1     0.01   0.01   0.00    -0.01  -0.00  -0.02     0.08   0.00   0.11
  46   1     0.01  -0.01   0.01    -0.02   0.02   0.00     0.09   0.00  -0.03
  47   1     0.02   0.01   0.02    -0.01  -0.00  -0.01     0.04  -0.02  -0.03
  48   1     0.00  -0.01  -0.01     0.01   0.01   0.04     0.00  -0.07  -0.10
  49   1    -0.01  -0.00   0.00     0.03   0.02   0.01    -0.04  -0.09  -0.01
  50   1     0.01   0.01   0.00    -0.01  -0.01  -0.00     0.09   0.10   0.06
  51   1     0.01  -0.00   0.01    -0.01  -0.01  -0.01    -0.05   0.01   0.14
  52   1     0.01   0.01  -0.01    -0.01  -0.01   0.02     0.06  -0.04  -0.20
  53   1     0.00   0.01  -0.01     0.00  -0.02   0.02    -0.10   0.14  -0.14
  54   1     0.01   0.00   0.00     0.00  -0.01   0.01     0.02  -0.08   0.03
  55   1     0.00   0.01  -0.00    -0.00  -0.02   0.00    -0.01   0.02  -0.03
  56   6    -0.21   0.13  -0.06     0.33  -0.42   0.24     0.30   0.22   0.04
  57   8    -0.04  -0.04   0.17    -0.00   0.13  -0.23     0.02  -0.13  -0.23
  58   6     0.05  -0.09  -0.12    -0.09   0.46   0.34    -0.26  -0.00  -0.03
  59   8    -0.02   0.07   0.03     0.10  -0.05  -0.22     0.05  -0.12   0.15
                     22                     23                     24
                        a                      a                      a 
 Frequencies --   236.6450               246.7788               249.0382
 Red. masses --     8.3605                10.9321                 9.6423
 Frc consts  --     0.0000                 0.0000                 0.0000
 IR Inten    --     1.2481                 1.5588                 2.5365
 Raman Activ --     0.0000                 0.0000                 0.0000
 Depolar     --     0.0000                 0.0000                 0.0000
 Atom AN      X      Y      Z        X      Y      Z        X      Y      Z
   1  28    -0.07   0.00  -0.04     0.09   0.08   0.06    -0.03   0.01   0.00
   2   7    -0.02  -0.13   0.17    -0.02   0.20  -0.03     0.02  -0.19   0.05
   3   6    -0.04  -0.01   0.08    -0.07   0.05   0.03     0.06  -0.03  -0.02
   4   7    -0.08  -0.21   0.13    -0.11  -0.14   0.12     0.09   0.10  -0.09
   5   6    -0.13   0.14  -0.07    -0.14   0.03   0.01     0.12  -0.02  -0.01
   6   6     0.16   0.09   0.02     0.06  -0.00   0.05    -0.04   0.01  -0.03
   7   6     0.10  -0.12   0.24     0.10  -0.07   0.02    -0.07   0.06   0.01
   8   6    -0.01   0.21  -0.13     0.03   0.01  -0.12    -0.02   0.02   0.09
   9   6     0.06   0.21  -0.10    -0.05   0.02   0.01     0.05   0.01  -0.02
  10   6    -0.05  -0.17   0.08     0.02   0.01  -0.05    -0.03  -0.03   0.05
  11   6    -0.02   0.05  -0.32     0.05  -0.03   0.03    -0.05   0.03  -0.07
  12   6     0.13  -0.11   0.05     0.04  -0.02   0.02    -0.02  -0.00  -0.01
  13   1    -0.04   0.12  -0.09    -0.05   0.06  -0.05     0.04  -0.04   0.03
  14   1    -0.13   0.03   0.01    -0.11  -0.00   0.02     0.08   0.00  -0.02
  15   1     0.03   0.05  -0.03     0.03   0.01   0.02    -0.03  -0.01  -0.02
  16   1     0.12   0.05   0.01     0.02   0.01   0.02    -0.01  -0.01  -0.01
  17   1     0.03  -0.17   0.01     0.05  -0.05  -0.01    -0.04   0.03   0.01
  18   1     0.02  -0.04   0.21     0.02  -0.02   0.04    -0.02   0.02  -0.01
  19   1    -0.11   0.08  -0.03    -0.04  -0.01  -0.04     0.03   0.02   0.03
  20   1     0.03   0.09  -0.12     0.02   0.01  -0.07    -0.02  -0.00   0.06
  21   1     0.01   0.07  -0.06    -0.02  -0.03   0.02     0.02   0.03  -0.02
  22   1     0.06   0.08  -0.01    -0.04   0.03   0.01     0.03  -0.02  -0.01
  23   1    -0.07  -0.00   0.08     0.07   0.01  -0.02    -0.07  -0.01   0.03
  24   1     0.00  -0.13   0.03    -0.02   0.03  -0.06     0.02  -0.04   0.06
  25   1     0.03   0.16  -0.17     0.02  -0.03   0.01    -0.01   0.05  -0.03
  26   1    -0.10  -0.07  -0.20     0.02   0.01   0.03    -0.03  -0.02  -0.05
  27   1     0.12  -0.04   0.00     0.01  -0.05  -0.03     0.01   0.03   0.03
  28   1     0.03  -0.05   0.06     0.03  -0.02   0.06    -0.02   0.01  -0.04
  29   7    -0.03   0.02   0.08    -0.01  -0.03  -0.13    -0.26   0.07   0.19
  30   6    -0.01  -0.00   0.03    -0.03  -0.03  -0.07    -0.14  -0.07   0.00
  31   7    -0.01  -0.01   0.02     0.03  -0.10  -0.18    -0.00  -0.26  -0.30
  32   6     0.01  -0.01  -0.03    -0.08  -0.06   0.12    -0.14  -0.20   0.10
  33   6     0.00  -0.03  -0.01     0.01   0.12   0.02     0.07   0.12  -0.03
  34   6     0.02  -0.00   0.04    -0.00   0.03  -0.20     0.13   0.05  -0.21
  35   6     0.03  -0.01  -0.03    -0.03   0.02   0.18     0.10   0.04   0.22
  36   6     0.01  -0.03  -0.02    -0.07   0.06   0.08    -0.05   0.01   0.08
  37   6    -0.01   0.03   0.05     0.02  -0.06  -0.10     0.05   0.04   0.07
  38   6    -0.01   0.02  -0.08     0.03  -0.04   0.18     0.05   0.06  -0.07
  39   6    -0.02  -0.01   0.02     0.06   0.03  -0.10     0.02   0.06  -0.04
  40   1     0.00  -0.00  -0.02    -0.03  -0.00   0.12    -0.05  -0.03   0.16
  41   1     0.01   0.01  -0.01    -0.07  -0.08   0.02    -0.11  -0.16   0.01
  42   1    -0.00  -0.00  -0.01     0.00   0.03   0.04     0.01   0.06   0.03
  43   1    -0.00  -0.02  -0.00     0.02   0.09  -0.00     0.04   0.08  -0.02
  44   1    -0.01   0.01   0.02     0.10  -0.04  -0.09     0.15  -0.02  -0.09
  45   1     0.02  -0.00   0.03    -0.06   0.01  -0.15    -0.03   0.01  -0.15
  46   1     0.02   0.01  -0.01    -0.05  -0.08   0.07    -0.00  -0.09   0.09
  47   1     0.00  -0.01  -0.02     0.03   0.04   0.12     0.08   0.05   0.15
  48   1     0.01  -0.01  -0.01    -0.02   0.01   0.02     0.01  -0.03   0.00
  49   1     0.00  -0.02  -0.00    -0.04   0.04   0.02    -0.06   0.02   0.04
  50   1     0.03   0.03   0.02    -0.05  -0.02  -0.05     0.05   0.12   0.02
  51   1    -0.02   0.01   0.04     0.04  -0.03  -0.05     0.00  -0.02   0.13
  52   1     0.02  -0.02  -0.06    -0.03   0.04   0.13     0.04   0.01  -0.04
  53   1    -0.03   0.04  -0.04     0.06  -0.10   0.09    -0.02   0.04  -0.03
  54   1    -0.01  -0.03   0.01     0.06   0.05  -0.03     0.07  -0.02   0.01
  55   1    -0.00   0.00   0.01     0.01  -0.00  -0.07    -0.00   0.05  -0.08
  56   6     0.04  -0.02   0.01     0.22   0.20   0.00    -0.04  -0.04   0.02
  57   8     0.00  -0.00  -0.03     0.03  -0.11  -0.18    -0.02   0.02   0.04
  58   6     0.02   0.04   0.02    -0.33  -0.04  -0.05     0.18   0.02   0.02
  59   8     0.01   0.01  -0.03     0.03  -0.16   0.19    -0.02   0.09  -0.10
                     25                     26                     27
                        a                      a                      a 
 Frequencies --   265.5339               282.0945               287.1169
 Red. masses --    13.2863                 9.1139                 8.2218
 Frc consts  --     0.0000                 0.0000                 0.0000
 IR Inten    --     1.6042                 2.2839                 1.4028
 Raman Activ --     0.0000                 0.0000                 0.0000
 Depolar     --     0.0000                 0.0000                 0.0000
 Atom AN      X      Y      Z        X      Y      Z        X      Y      Z
   1  28    -0.17   0.18   0.07    -0.11   0.07   0.06    -0.06   0.01   0.01
   2   7     0.03  -0.33   0.13     0.03  -0.21   0.05     0.00  -0.01   0.00
   3   6     0.08  -0.06  -0.00     0.12  -0.17   0.09     0.00  -0.01   0.00
   4   7     0.12   0.19  -0.17     0.16   0.04   0.05     0.01   0.01  -0.01
   5   6     0.19  -0.03  -0.01    -0.00   0.10  -0.08     0.02  -0.00   0.00
   6   6    -0.05   0.01   0.02    -0.07   0.10  -0.23    -0.00   0.00   0.00
   7   6    -0.06   0.15  -0.01    -0.16  -0.27   0.10     0.00   0.02  -0.01
   8   6     0.00   0.01   0.15    -0.21  -0.04  -0.14     0.00  -0.01   0.01
   9   6     0.04   0.00   0.02     0.21  -0.06  -0.06     0.00  -0.01   0.01
  10   6    -0.06  -0.11   0.08     0.13   0.13   0.05     0.00  -0.01  -0.00
  11   6    -0.06   0.04  -0.20     0.02   0.02   0.21     0.00  -0.00  -0.01
  12   6     0.04  -0.09   0.02    -0.11   0.19  -0.03     0.00  -0.01  -0.00
  13   1     0.06  -0.07   0.06     0.01  -0.01  -0.04     0.00  -0.00   0.01
  14   1     0.13  -0.01  -0.03    -0.00   0.07  -0.00     0.01  -0.00  -0.00
  15   1    -0.03  -0.03   0.02    -0.05   0.07  -0.14    -0.00  -0.00   0.00
  16   1    -0.04   0.01   0.01     0.08   0.00  -0.08    -0.00   0.00   0.00
  17   1    -0.03   0.10   0.02    -0.09  -0.22  -0.03     0.00   0.01   0.00
  18   1    -0.02   0.05  -0.07    -0.00  -0.09   0.18     0.00   0.01  -0.01
  19   1     0.06   0.02   0.05    -0.17  -0.03  -0.04     0.00  -0.00   0.00
  20   1    -0.02  -0.02   0.09    -0.05   0.07  -0.12     0.00  -0.00   0.00
  21   1     0.02   0.03  -0.00     0.07   0.05  -0.07     0.00  -0.00   0.00
  22   1     0.03  -0.03  -0.00     0.14  -0.03  -0.00    -0.00  -0.00   0.00
  23   1    -0.15  -0.03   0.05     0.08   0.03  -0.01    -0.00  -0.00  -0.00
  24   1     0.03  -0.12   0.11     0.02   0.09   0.01     0.00  -0.00   0.00
  25   1     0.00   0.11  -0.10    -0.03  -0.06   0.11     0.00   0.00  -0.00
  26   1    -0.08  -0.05  -0.13     0.07   0.05   0.11    -0.00  -0.00  -0.00
  27   1     0.06   0.01   0.03    -0.09   0.15   0.08     0.00  -0.00   0.00
  28   1    -0.02  -0.03  -0.02    -0.04   0.11  -0.15     0.00  -0.00  -0.00
  29   7     0.10  -0.04  -0.12     0.02  -0.01  -0.02     0.14  -0.03  -0.09
  30   6     0.05   0.00  -0.02     0.02  -0.00  -0.01     0.15   0.05  -0.16
  31   7     0.00   0.06   0.07    -0.00   0.01   0.01    -0.00   0.18  -0.01
  32   6     0.02   0.06   0.01    -0.00   0.01   0.01    -0.02   0.05   0.11
  33   6    -0.04   0.00   0.01    -0.02   0.00   0.01     0.03  -0.06   0.26
  34   6    -0.06   0.01   0.02    -0.01  -0.01  -0.00     0.06  -0.27  -0.18
  35   6    -0.04  -0.02  -0.03    -0.00  -0.02  -0.00     0.04  -0.25   0.10
  36   6    -0.01  -0.01  -0.02     0.00  -0.01  -0.01     0.18   0.12  -0.07
  37   6    -0.03  -0.07  -0.08    -0.02  -0.02  -0.02    -0.10   0.18   0.04
  38   6    -0.02  -0.07   0.11    -0.02  -0.02   0.03    -0.15   0.06  -0.21
  39   6     0.04  -0.04  -0.07     0.01  -0.02  -0.02    -0.20  -0.03   0.16
  40   1     0.01   0.01  -0.02     0.00   0.00   0.00     0.03  -0.00   0.01
  41   1     0.01   0.03   0.00    -0.00   0.00   0.00    -0.04   0.05   0.04
  42   1    -0.01  -0.01  -0.01    -0.00  -0.00   0.00     0.02  -0.03   0.16
  43   1    -0.02  -0.00   0.01    -0.01   0.00   0.00     0.08   0.05   0.05
  44   1    -0.03   0.01   0.01    -0.00  -0.00  -0.00     0.12  -0.18  -0.08
  45   1    -0.00   0.01   0.02    -0.00   0.00  -0.00    -0.04  -0.03  -0.18
  46   1    -0.01   0.00  -0.01    -0.00  -0.01  -0.00    -0.02  -0.17   0.05
  47   1    -0.01  -0.01  -0.02     0.00  -0.00   0.00     0.01  -0.03   0.14
  48   1    -0.01   0.01  -0.01    -0.00  -0.00  -0.00     0.04   0.07   0.05
  49   1     0.00  -0.01  -0.01     0.00  -0.00  -0.00     0.09   0.08  -0.05
  50   1    -0.05  -0.07  -0.03    -0.02  -0.02  -0.01     0.01   0.09   0.02
  51   1     0.01  -0.01  -0.08     0.00  -0.00  -0.02    -0.08   0.06   0.05
  52   1    -0.04   0.01   0.09    -0.01   0.00   0.02    -0.02  -0.05  -0.15
  53   1     0.03  -0.08   0.06     0.00  -0.02   0.01    -0.09   0.12  -0.10
  54   1     0.03   0.02  -0.02     0.01   0.00  -0.01    -0.20  -0.03   0.02
  55   1     0.01  -0.03  -0.03     0.00  -0.01  -0.01    -0.04  -0.01   0.19
  56   6     0.23   0.28   0.04     0.12   0.13   0.04     0.04   0.05   0.00
  57   8     0.01  -0.13  -0.15    -0.00  -0.06  -0.06     0.00  -0.02  -0.03
  58   6    -0.18  -0.03  -0.05     0.03  -0.01  -0.01    -0.05  -0.01  -0.01
  59   8     0.02  -0.08   0.10    -0.01   0.02  -0.00    -0.01  -0.02   0.03
                     28                     29                     30
                        a                      a                      a 
 Frequencies --   318.7765               347.2873               353.8221
 Red. masses --    19.7747                10.5595                10.1953
 Frc consts  --     0.0000                 0.0000                 0.0000
 IR Inten    --     1.3529                 0.9248                 1.0077
 Raman Activ --     0.0000                 0.0000                 0.0000
 Depolar     --     0.0000                 0.0000                 0.0000
 Atom AN      X      Y      Z        X      Y      Z        X      Y      Z
   1  28    -0.30  -0.17   0.21     0.07   0.06  -0.06    -0.03   0.03   0.08
   2   7    -0.03   0.09  -0.00    -0.06  -0.22   0.35     0.00   0.01  -0.04
   3   6    -0.07   0.08  -0.02    -0.09   0.08   0.13     0.00  -0.02  -0.02
   4   7    -0.11  -0.09   0.02    -0.14   0.07  -0.17     0.00  -0.03   0.01
   5   6    -0.07  -0.06   0.02    -0.10  -0.23  -0.02     0.03   0.02   0.01
   6   6     0.05  -0.08   0.03     0.10  -0.29  -0.08     0.01   0.03   0.01
   7   6     0.06   0.03  -0.02     0.09  -0.09  -0.09     0.00   0.03   0.02
   8   6     0.11   0.07   0.02     0.28   0.18  -0.00    -0.03  -0.00   0.00
   9   6    -0.05   0.08  -0.03     0.07   0.20  -0.04    -0.03  -0.01   0.00
  10   6    -0.03   0.02  -0.08    -0.10   0.04  -0.20     0.01  -0.00  -0.00
  11   6     0.00  -0.03   0.03    -0.03  -0.05   0.05     0.00  -0.01  -0.00
  12   6    -0.02   0.05  -0.00    -0.06   0.21   0.15    -0.00  -0.01  -0.03
  13   1    -0.02   0.01  -0.00    -0.03  -0.03   0.00     0.01   0.00   0.01
  14   1    -0.04  -0.03   0.01    -0.02  -0.11  -0.03     0.01   0.01   0.00
  15   1     0.02  -0.01   0.01     0.04  -0.03  -0.05    -0.00   0.00  -0.00
  16   1     0.00  -0.03   0.01     0.04  -0.13  -0.04     0.01   0.01   0.00
  17   1     0.03   0.03   0.00     0.04  -0.04  -0.03     0.00   0.02   0.01
  18   1    -0.01   0.01  -0.03    -0.06  -0.01  -0.01     0.01   0.01  -0.00
  19   1     0.07   0.04   0.01     0.14   0.09   0.01    -0.02  -0.00   0.00
  20   1     0.02  -0.01   0.04     0.06   0.02   0.07    -0.00  -0.00  -0.01
  21   1    -0.02  -0.00  -0.01    -0.00   0.02  -0.06    -0.00  -0.00   0.01
  22   1    -0.03   0.03  -0.01     0.07   0.09   0.02    -0.02  -0.00  -0.00
  23   1     0.04   0.00  -0.03     0.02  -0.01  -0.09     0.01   0.00   0.00
  24   1    -0.03   0.04  -0.06    -0.04   0.06  -0.07     0.00   0.00  -0.01
  25   1     0.00  -0.05   0.02     0.02  -0.08   0.01    -0.00  -0.00   0.00
  26   1     0.02   0.01   0.03     0.01   0.02   0.05     0.01  -0.00   0.00
  27   1    -0.03   0.02   0.00    -0.05   0.18   0.16    -0.00  -0.01  -0.01
  28   1     0.01   0.02  -0.01     0.00   0.13  -0.10     0.00  -0.00  -0.00
  29   7     0.01   0.01   0.00     0.00  -0.01  -0.03     0.00  -0.08  -0.36
  30   6     0.01   0.00  -0.01    -0.01  -0.01   0.00    -0.13  -0.06  -0.02
  31   7    -0.02   0.03   0.01     0.01  -0.02   0.02     0.03  -0.14   0.23
  32   6    -0.03   0.00   0.03     0.02   0.00  -0.02     0.17  -0.10  -0.14
  33   6    -0.05  -0.02   0.02     0.04   0.01  -0.01     0.33   0.03  -0.12
  34   6     0.01  -0.03   0.01    -0.00   0.01  -0.01     0.05   0.08  -0.04
  35   6     0.02  -0.04  -0.02    -0.01   0.02   0.01    -0.06   0.25   0.09
  36   6     0.03  -0.01  -0.03    -0.02  -0.00   0.02    -0.19   0.04   0.12
  37   6    -0.02  -0.02  -0.04     0.00  -0.01   0.03     0.02  -0.14   0.24
  38   6    -0.02  -0.02   0.03     0.00  -0.00  -0.01    -0.01  -0.07  -0.08
  39   6     0.03  -0.01  -0.04    -0.03   0.00   0.01    -0.28   0.03  -0.01
  40   1    -0.00  -0.00   0.01    -0.00   0.00  -0.01     0.00  -0.01  -0.07
  41   1    -0.01   0.00   0.01     0.01   0.00  -0.01     0.12  -0.02  -0.04
  42   1    -0.02  -0.00  -0.01     0.01   0.00   0.01     0.10   0.01   0.06
  43   1    -0.03  -0.01   0.01     0.02   0.01  -0.01     0.18   0.03  -0.06
  44   1    -0.00  -0.01   0.00     0.00   0.00  -0.00     0.03   0.03  -0.02
  45   1     0.01   0.00   0.00    -0.01  -0.00  -0.00    -0.04  -0.04  -0.00
  46   1     0.01  -0.02  -0.01    -0.01   0.01   0.00    -0.03   0.10   0.03
  47   1     0.00  -0.01   0.00     0.00   0.01   0.00    -0.01   0.06  -0.01
  48   1     0.01   0.00  -0.00    -0.01  -0.00  -0.00    -0.03  -0.02   0.02
  49   1     0.02   0.00  -0.01    -0.01   0.00   0.01    -0.09   0.05   0.04
  50   1    -0.02  -0.03  -0.02     0.01   0.01   0.01     0.06  -0.01   0.08
  51   1     0.00  -0.00  -0.04    -0.01  -0.00   0.02    -0.04  -0.03   0.10
  52   1    -0.02   0.01   0.03     0.01  -0.00  -0.01     0.08  -0.02  -0.07
  53   1     0.01  -0.03   0.02    -0.00   0.01  -0.01    -0.05   0.03  -0.05
  54   1     0.04   0.00  -0.01    -0.03   0.00  -0.00    -0.25   0.03  -0.04
  55   1     0.01  -0.02  -0.04    -0.01   0.00   0.02    -0.06   0.04   0.16
  56   6     0.34   0.25   0.08    -0.04  -0.06  -0.01     0.08   0.08   0.00
  57   8     0.03  -0.13  -0.22     0.01   0.02   0.02     0.01  -0.04  -0.06
  58   6     0.55  -0.08   0.04    -0.13   0.02  -0.00     0.06  -0.02  -0.01
  59   8    -0.07   0.24  -0.21     0.01  -0.06   0.05    -0.01   0.02  -0.01
                     31                     32                     33
                        a                      a                      a 
 Frequencies --   366.3939               367.9295               370.3186
 Red. masses --     9.4977                 9.0511                 7.8737
 Frc consts  --     0.0000                 0.0000                 0.0000
 IR Inten    --     3.7256                 0.3219                 4.5752
 Raman Activ --     0.0000                 0.0000                 0.0000
 Depolar     --     0.0000                 0.0000                 0.0000
 Atom AN      X      Y      Z        X      Y      Z        X      Y      Z
   1  28     0.03   0.01  -0.02    -0.01  -0.01  -0.00     0.03   0.03  -0.01
   2   7    -0.03  -0.22  -0.03    -0.01   0.00  -0.01    -0.11  -0.22  -0.01
   3   6    -0.03  -0.15  -0.05     0.01   0.00   0.00     0.03  -0.10   0.01
   4   7    -0.03  -0.29   0.00     0.00  -0.00   0.03     0.02  -0.21   0.19
   5   6     0.28  -0.01   0.01    -0.06   0.03  -0.01    -0.21   0.16  -0.08
   6   6     0.23   0.06   0.05    -0.05   0.02   0.03    -0.18   0.16   0.22
   7   6     0.07   0.30   0.28    -0.01  -0.01  -0.04    -0.02   0.15  -0.09
   8   6    -0.19   0.15   0.06     0.03  -0.02   0.02     0.12   0.00   0.16
   9   6    -0.29   0.09   0.08     0.05  -0.01  -0.03     0.22   0.00  -0.16
  10   6     0.06  -0.00  -0.19     0.02  -0.00   0.02     0.19  -0.04  -0.05
  11   6    -0.01  -0.15  -0.02     0.00   0.00  -0.00     0.01  -0.12  -0.05
  12   6    -0.09   0.06  -0.14    -0.00  -0.01  -0.01    -0.08   0.04  -0.16
  13   1     0.08   0.01   0.06    -0.02   0.01  -0.02    -0.06   0.10  -0.14
  14   1     0.11   0.00  -0.01    -0.04   0.01   0.00    -0.17   0.04   0.02
  15   1    -0.01  -0.00  -0.06     0.00  -0.01   0.04     0.01  -0.05   0.21
  16   1     0.13   0.00   0.00    -0.04   0.02   0.02    -0.18   0.16   0.12
  17   1     0.03   0.12   0.09    -0.00   0.01  -0.01     0.01   0.13   0.01
  18   1     0.01   0.09   0.04     0.00  -0.00  -0.02     0.01   0.05  -0.11
  19   1    -0.14   0.04   0.01     0.03   0.00   0.01     0.16   0.05   0.06
  20   1    -0.00   0.02  -0.08    -0.00  -0.01   0.03    -0.01  -0.04   0.17
  21   1    -0.06   0.02   0.10     0.01   0.01  -0.03     0.06   0.06  -0.13
  22   1    -0.14   0.05   0.02     0.03  -0.01  -0.01     0.14  -0.06  -0.05
  23   1     0.15  -0.00  -0.07     0.01   0.00   0.01     0.16  -0.00  -0.02
  24   1    -0.03   0.10  -0.12     0.00  -0.00   0.00     0.01   0.05  -0.08
  25   1    -0.02  -0.10   0.03    -0.00   0.01  -0.00    -0.03  -0.03   0.01
  26   1     0.05  -0.00   0.04     0.00  -0.00  -0.01     0.04  -0.03  -0.01
  27   1    -0.08   0.11   0.04     0.00  -0.00  -0.00    -0.06   0.09   0.03
  28   1    -0.01   0.08  -0.16     0.00  -0.00  -0.00    -0.00   0.07  -0.14
  29   7     0.02  -0.01   0.02     0.10  -0.01   0.08    -0.02   0.01  -0.00
  30   6     0.03  -0.01  -0.01     0.13  -0.11  -0.00    -0.02   0.02   0.01
  31   7     0.02  -0.00  -0.04     0.13  -0.10  -0.10    -0.02   0.01   0.02
  32   6    -0.00   0.04   0.01     0.10   0.33  -0.10    -0.01  -0.05   0.01
  33   6    -0.03   0.03   0.01     0.02   0.25   0.01     0.01  -0.03  -0.00
  34   6    -0.05   0.02  -0.00    -0.34   0.18  -0.10     0.05  -0.03   0.01
  35   6    -0.02  -0.04  -0.00    -0.15  -0.25   0.09     0.02   0.03  -0.01
  36   6    -0.01  -0.03  -0.01    -0.22  -0.31  -0.04     0.02   0.04   0.00
  37   6     0.02   0.02  -0.01     0.06  -0.01   0.06    -0.02  -0.00  -0.01
  38   6     0.02  -0.00   0.00     0.08  -0.00  -0.03    -0.02   0.00   0.00
  39   6     0.03  -0.01   0.01     0.07  -0.03   0.11    -0.01   0.00  -0.02
  40   1    -0.00   0.01  -0.00    -0.02   0.10  -0.12     0.00  -0.01   0.01
  41   1    -0.01   0.02   0.00     0.06   0.17  -0.02    -0.01  -0.02   0.00
  42   1    -0.01  -0.00  -0.00     0.04  -0.01   0.10    -0.00   0.00  -0.01
  43   1    -0.01   0.01   0.00     0.09   0.14  -0.02    -0.01  -0.02   0.00
  44   1    -0.02   0.01   0.00    -0.11   0.06  -0.02     0.02  -0.01   0.00
  45   1    -0.00   0.01   0.01    -0.07   0.07  -0.01     0.01  -0.01  -0.00
  46   1    -0.01  -0.02   0.00    -0.06  -0.21   0.05     0.01   0.03  -0.00
  47   1     0.00  -0.01   0.01     0.07  -0.02   0.13    -0.01   0.00  -0.01
  48   1    -0.01   0.00  -0.01    -0.11  -0.06  -0.10     0.01   0.00   0.01
  49   1    -0.00  -0.01  -0.00    -0.10  -0.14   0.03     0.01   0.01  -0.00
  50   1     0.01   0.02  -0.00     0.04   0.05   0.02    -0.01  -0.01  -0.00
  51   1     0.00   0.00   0.01    -0.00  -0.01   0.07    -0.00   0.00  -0.01
  52   1    -0.00  -0.00   0.00     0.04  -0.03  -0.04    -0.01   0.00   0.00
  53   1     0.01  -0.00   0.00     0.00   0.04  -0.02    -0.00  -0.00   0.00
  54   1     0.01  -0.00   0.00    -0.01  -0.02   0.03     0.00   0.00  -0.00
  55   1     0.01  -0.00   0.00     0.02  -0.00   0.06    -0.01  -0.00  -0.01
  56   6    -0.03   0.00   0.00     0.01   0.00   0.01    -0.02  -0.01  -0.00
  57   8    -0.01   0.01   0.03    -0.00   0.00   0.00    -0.00   0.01   0.01
  58   6    -0.04  -0.00  -0.02     0.06   0.01   0.02    -0.04   0.00   0.00
  59   8     0.01  -0.01   0.01     0.00   0.02  -0.03     0.00  -0.02   0.02
                     34                     35                     36
                        a                      a                      a 
 Frequencies --   377.4385               417.3153               419.8564
 Red. masses --     8.4449                 9.7057                 9.7180
 Frc consts  --     0.0000                 0.0000                 0.0000
 IR Inten    --     7.5088                 4.3518                 9.4489
 Raman Activ --     0.0000                 0.0000                 0.0000
 Depolar     --     0.0000                 0.0000                 0.0000
 Atom AN      X      Y      Z        X      Y      Z        X      Y      Z
   1  28    -0.03   0.03   0.04    -0.03   0.14   0.06     0.03  -0.14  -0.01
   2   7    -0.00   0.00   0.00     0.01  -0.00  -0.01     0.12   0.01  -0.13
   3   6     0.00  -0.00   0.00     0.02   0.00  -0.01     0.29   0.04  -0.03
   4   7     0.00   0.01   0.00     0.02  -0.01   0.00     0.28  -0.10  -0.06
   5   6    -0.02   0.00  -0.00    -0.01  -0.00  -0.02    -0.10  -0.08  -0.27
   6   6    -0.02   0.00   0.00    -0.00  -0.01   0.00     0.01  -0.15   0.01
   7   6    -0.00  -0.01  -0.02    -0.00  -0.00  -0.00    -0.00  -0.02  -0.02
   8   6     0.01  -0.01  -0.00     0.01   0.01   0.00     0.08   0.13  -0.01
   9   6     0.02  -0.01  -0.01    -0.00   0.01   0.01    -0.03   0.09   0.25
  10   6     0.00  -0.00   0.01     0.00   0.00   0.01     0.06   0.00   0.12
  11   6     0.00   0.00   0.00    -0.02   0.00   0.00    -0.25  -0.00   0.03
  12   6     0.00  -0.00   0.00    -0.02  -0.00   0.00    -0.23   0.01   0.06
  13   1    -0.00   0.00  -0.01    -0.00   0.01  -0.02    -0.03   0.06  -0.25
  14   1    -0.01   0.00   0.00    -0.02  -0.00  -0.00    -0.22  -0.07  -0.03
  15   1     0.00  -0.00   0.01    -0.00  -0.01   0.01     0.00  -0.09   0.04
  16   1    -0.01   0.00   0.00    -0.01   0.00   0.00    -0.03   0.01   0.03
  17   1    -0.00  -0.00  -0.00     0.00  -0.00  -0.00     0.02  -0.01  -0.01
  18   1     0.00  -0.00  -0.01    -0.00  -0.00   0.00    -0.06   0.00   0.00
  19   1     0.01   0.00   0.00     0.00   0.00   0.00     0.01   0.00  -0.01
  20   1     0.00  -0.00   0.01     0.00   0.00   0.00     0.02   0.06  -0.01
  21   1     0.01  -0.00  -0.01     0.00  -0.01   0.02     0.01  -0.05   0.26
  22   1     0.01  -0.00  -0.00    -0.02   0.01   0.00    -0.20   0.11   0.06
  23   1    -0.00   0.00   0.00     0.00   0.00   0.01    -0.00   0.01   0.05
  24   1     0.00  -0.00   0.00     0.00   0.00   0.01     0.04   0.03   0.09
  25   1    -0.00   0.00  -0.00    -0.01   0.01   0.00    -0.07   0.07  -0.01
  26   1    -0.00  -0.00  -0.00    -0.01  -0.00  -0.00    -0.12  -0.03  -0.03
  27   1     0.00  -0.00  -0.00    -0.01   0.00   0.00    -0.10   0.01   0.02
  28   1     0.00  -0.00   0.00    -0.01   0.00  -0.00    -0.08   0.01  -0.02
  29   7     0.18  -0.22  -0.14    -0.12  -0.11  -0.13    -0.00  -0.01  -0.02
  30   6     0.11  -0.05  -0.09    -0.11  -0.27  -0.05    -0.01  -0.01  -0.01
  31   7     0.13  -0.13  -0.34    -0.22  -0.21   0.04    -0.01  -0.01   0.01
  32   6    -0.07  -0.08   0.18    -0.19   0.14  -0.16    -0.00   0.01  -0.01
  33   6    -0.24   0.03  -0.09    -0.12   0.05   0.09    -0.00   0.00   0.00
  34   6    -0.15   0.13   0.11    -0.02   0.01   0.00    -0.00   0.00   0.00
  35   6    -0.11   0.11  -0.09     0.05  -0.10  -0.06    -0.00  -0.00  -0.00
  36   6     0.06   0.09   0.10     0.25   0.02   0.14     0.01   0.01  -0.00
  37   6     0.15   0.13   0.06     0.07  -0.09   0.08     0.01  -0.00   0.01
  38   6     0.13  -0.08  -0.05     0.15   0.19   0.01     0.01  -0.00   0.00
  39   6    -0.05  -0.10   0.21     0.10   0.19   0.00     0.00   0.00  -0.01
  40   1    -0.01  -0.01   0.18    -0.10   0.03  -0.22    -0.00   0.00  -0.01
  41   1    -0.09  -0.13   0.03     0.03   0.21  -0.01     0.00   0.01  -0.00
  42   1    -0.07   0.00  -0.17    -0.04   0.03   0.07    -0.00   0.00   0.00
  43   1    -0.20  -0.02   0.02     0.01   0.01   0.01     0.00   0.00   0.00
  44   1    -0.11   0.09   0.05    -0.02  -0.01   0.01    -0.00  -0.00   0.00
  45   1     0.00   0.03   0.11     0.03   0.05  -0.01    -0.00   0.00   0.00
  46   1    -0.04   0.13  -0.03    -0.01   0.00  -0.01    -0.00  -0.00   0.00
  47   1    -0.05  -0.01  -0.11     0.02  -0.04  -0.04    -0.00   0.00   0.00
  48   1     0.01   0.05   0.09     0.12   0.01   0.28     0.00   0.00   0.01
  49   1     0.06   0.05   0.00     0.22   0.16  -0.08     0.01   0.01  -0.00
  50   1     0.10   0.18   0.02     0.04  -0.02   0.03     0.00   0.00   0.00
  51   1    -0.02   0.01   0.15     0.07  -0.06   0.05     0.00  -0.00   0.00
  52   1     0.02  -0.06  -0.05     0.08   0.04  -0.03     0.00   0.00   0.00
  53   1     0.03   0.03  -0.03     0.03   0.10  -0.01     0.00  -0.00   0.00
  54   1    -0.19  -0.03   0.02     0.04   0.08  -0.00    -0.00   0.00  -0.00
  55   1    -0.00   0.01   0.23     0.03   0.08  -0.02     0.00   0.00   0.00
  56   6     0.04   0.03  -0.00     0.06  -0.15  -0.01    -0.03   0.18   0.07
  57   8     0.01  -0.02  -0.03     0.04   0.02  -0.09    -0.06  -0.03   0.10
  58   6     0.00   0.01  -0.02     0.03  -0.16  -0.07    -0.07   0.15  -0.01
  59   8     0.00   0.01  -0.01    -0.05  -0.03   0.09     0.05   0.04  -0.08
                     37                     38                     39
                        a                      a                      a 
 Frequencies --   424.1594               478.9023               483.9033
 Red. masses --    19.6984                10.9399                11.0959
 Frc consts  --     0.0000                 0.0000                 0.0000
 IR Inten    --    12.0560                 1.2295                 4.6374
 Raman Activ --     0.0000                 0.0000                 0.0000
 Depolar     --     0.0000                 0.0000                 0.0000
 Atom AN      X      Y      Z        X      Y      Z        X      Y      Z
   1  28    -0.11   0.39   0.04    -0.03   0.02   0.07    -0.02   0.03   0.09
   2   7     0.05   0.02  -0.06    -0.03   0.09  -0.00    -0.07   0.18  -0.00
   3   6     0.10   0.02  -0.03     0.02  -0.01   0.06     0.02  -0.00   0.13
   4   7     0.09  -0.05  -0.01     0.02   0.01  -0.03     0.01   0.05  -0.05
   5   6    -0.03  -0.02  -0.09     0.02  -0.01  -0.03     0.04   0.00  -0.03
   6   6     0.00  -0.04   0.00     0.01   0.00  -0.00     0.01   0.02  -0.00
   7   6    -0.00   0.00  -0.00     0.00   0.03   0.02     0.00   0.03   0.02
   8   6     0.02   0.05  -0.00    -0.02  -0.01   0.01    -0.03  -0.02   0.01
   9   6    -0.02   0.04   0.08     0.06  -0.02   0.06     0.13  -0.03   0.10
  10   6     0.01   0.01   0.05     0.02  -0.04  -0.04     0.05  -0.08  -0.09
  11   6    -0.09   0.01   0.02    -0.07  -0.07  -0.04    -0.12  -0.16  -0.10
  12   6    -0.07   0.00   0.02    -0.05   0.02   0.03    -0.09   0.03   0.06
  13   1    -0.01   0.02  -0.08     0.01  -0.00  -0.00     0.01  -0.01   0.02
  14   1    -0.07  -0.02  -0.01     0.01  -0.00  -0.01     0.05   0.00  -0.02
  15   1    -0.00  -0.03   0.01    -0.00  -0.01  -0.00    -0.00  -0.00  -0.00
  16   1    -0.01   0.01   0.01     0.01   0.00   0.00     0.01   0.01   0.00
  17   1     0.01  -0.00  -0.00     0.00   0.02   0.01    -0.00   0.03   0.01
  18   1    -0.02   0.00   0.00     0.00   0.01  -0.01     0.01   0.01  -0.02
  19   1     0.00   0.01  -0.00    -0.04  -0.03  -0.01    -0.06  -0.05  -0.01
  20   1     0.00   0.02  -0.00     0.00   0.02  -0.03     0.00   0.04  -0.05
  21   1    -0.00  -0.02   0.09     0.02   0.01  -0.01     0.03   0.02  -0.03
  22   1    -0.08   0.04   0.01     0.04  -0.01   0.02     0.10  -0.02   0.04
  23   1    -0.00   0.01   0.02     0.02  -0.02  -0.03     0.06  -0.04  -0.06
  24   1     0.01   0.01   0.03     0.00   0.02  -0.01     0.00   0.04  -0.03
  25   1    -0.02   0.02  -0.00    -0.01   0.01  -0.03    -0.01   0.02  -0.06
  26   1    -0.04  -0.01  -0.01    -0.04  -0.04  -0.03    -0.08  -0.08  -0.07
  27   1    -0.03  -0.00   0.00    -0.03   0.00   0.01    -0.06   0.01   0.02
  28   1    -0.03  -0.00  -0.00     0.01   0.02   0.01     0.02   0.03   0.02
  29   7     0.03   0.03   0.06     0.25  -0.06  -0.14    -0.21   0.05   0.13
  30   6     0.04   0.09   0.02     0.07  -0.05   0.21    -0.07   0.04  -0.15
  31   7     0.07   0.08  -0.01    -0.06  -0.02  -0.11     0.04   0.00   0.08
  32   6     0.06  -0.04   0.05    -0.09  -0.07  -0.06     0.06   0.07   0.04
  33   6     0.04  -0.01  -0.03     0.02  -0.03  -0.02    -0.03   0.02   0.03
  34   6     0.00  -0.00  -0.00     0.05  -0.03  -0.00    -0.03   0.01  -0.00
  35   6    -0.02   0.03   0.02     0.01   0.05   0.02    -0.00  -0.04  -0.02
  36   6    -0.08  -0.01  -0.05    -0.03  -0.18   0.21     0.04   0.15  -0.16
  37   6    -0.02   0.04  -0.03    -0.17   0.04  -0.07     0.15  -0.03   0.05
  38   6    -0.04  -0.06  -0.00    -0.16   0.28  -0.02     0.14  -0.22   0.02
  39   6    -0.03  -0.07   0.01     0.16   0.10   0.08    -0.12  -0.08  -0.06
  40   1     0.03  -0.01   0.07    -0.01  -0.02   0.03     0.00   0.02  -0.04
  41   1    -0.01  -0.07   0.00    -0.06  -0.06  -0.02     0.04   0.07   0.02
  42   1     0.01  -0.01  -0.02    -0.00   0.01   0.02    -0.00  -0.01  -0.02
  43   1    -0.00  -0.00  -0.00     0.04  -0.02  -0.01    -0.04   0.01   0.02
  44   1     0.01   0.00  -0.00     0.04  -0.02  -0.01    -0.03   0.01   0.01
  45   1    -0.01  -0.01   0.00    -0.01  -0.02  -0.02     0.01   0.01   0.01
  46   1     0.00  -0.00   0.00    -0.02   0.11   0.00     0.02  -0.08  -0.00
  47   1    -0.01   0.01   0.02     0.01  -0.03  -0.09    -0.01   0.02   0.07
  48   1    -0.04  -0.00  -0.09    -0.02  -0.07  -0.04     0.02   0.05   0.04
  49   1    -0.07  -0.06   0.03    -0.06  -0.12   0.10     0.05   0.10  -0.08
  50   1    -0.01   0.01  -0.01    -0.11  -0.03  -0.03     0.09   0.02   0.03
  51   1    -0.02   0.02  -0.02     0.03  -0.01  -0.06    -0.02   0.01   0.05
  52   1    -0.03  -0.02   0.01    -0.03   0.01  -0.10     0.02  -0.01   0.08
  53   1    -0.01  -0.03   0.01    -0.08   0.17  -0.04     0.07  -0.14   0.04
  54   1    -0.01  -0.03   0.01     0.06   0.08   0.02    -0.04  -0.07  -0.01
  55   1    -0.01  -0.02   0.01     0.05  -0.05   0.01    -0.04   0.04  -0.01
  56   6     0.09  -0.46  -0.08    -0.11   0.08  -0.37    -0.12   0.06  -0.39
  57   8     0.11   0.09  -0.20     0.19  -0.07  -0.09     0.20  -0.07  -0.11
  58   6     0.19  -0.46  -0.06     0.05   0.08   0.34     0.04   0.09   0.32
  59   8    -0.14  -0.08   0.23    -0.07  -0.13  -0.01    -0.06  -0.12  -0.02
                     40                     41                     42
                        a                      a                      a 
 Frequencies --   487.0494               508.3312               511.5048
 Red. masses --    10.2967                11.5569                 8.6013
 Frc consts  --     0.0000                 0.0000                 0.0000
 IR Inten    --     1.4767                 0.2169                 0.6251
 Raman Activ --     0.0000                 0.0000                 0.0000
 Depolar     --     0.0000                 0.0000                 0.0000
 Atom AN      X      Y      Z        X      Y      Z        X      Y      Z
   1  28     0.03  -0.05  -0.01     0.01   0.04  -0.16    -0.03  -0.02   0.12
   2   7    -0.08   0.33   0.02     0.26   0.10   0.03     0.11   0.02   0.05
   3   6     0.00  -0.01   0.23     0.01  -0.12   0.01     0.00   0.01  -0.02
   4   7    -0.02   0.04  -0.10    -0.07  -0.34  -0.14    -0.04  -0.23  -0.04
   5   6     0.08   0.02  -0.05     0.11  -0.00  -0.29     0.19   0.06  -0.12
   6   6     0.01   0.05   0.00     0.03   0.02   0.03    -0.10   0.14  -0.00
   7   6     0.01   0.05   0.04     0.01   0.08   0.03    -0.02  -0.11  -0.07
   8   6    -0.06  -0.06   0.02    -0.07  -0.06   0.04     0.07   0.00  -0.02
   9   6     0.23  -0.07   0.14     0.07  -0.05  -0.08    -0.05   0.02  -0.00
  10   6     0.02  -0.13  -0.17    -0.32   0.08  -0.06    -0.12   0.01  -0.05
  11   6    -0.19  -0.25  -0.15    -0.02   0.17   0.14    -0.03   0.02   0.04
  12   6    -0.14   0.05   0.14     0.06   0.09   0.24     0.02   0.05   0.12
  13   1     0.02  -0.02   0.05     0.03   0.03  -0.07     0.06  -0.05   0.07
  14   1     0.09   0.01  -0.04     0.01   0.00  -0.08     0.15   0.07  -0.04
  15   1    -0.01  -0.00   0.01    -0.00  -0.11   0.09     0.00  -0.07   0.13
  16   1     0.01   0.03   0.01    -0.05   0.12   0.06    -0.13   0.15   0.06
  17   1    -0.00   0.05   0.02     0.00   0.07   0.03    -0.03  -0.13  -0.06
  18   1     0.02   0.01  -0.03     0.02   0.03  -0.05     0.02  -0.04   0.10
  19   1    -0.10  -0.08  -0.02    -0.04  -0.02   0.01     0.08   0.02   0.00
  20   1    -0.00   0.06  -0.08    -0.01  -0.02  -0.01    -0.00  -0.02   0.06
  21   1     0.06   0.04  -0.08     0.02   0.06  -0.13    -0.02  -0.02   0.02
  22   1     0.20  -0.06   0.06     0.14  -0.07  -0.02    -0.03   0.03   0.00
  23   1     0.08  -0.07  -0.10    -0.14   0.05   0.03    -0.02   0.01  -0.00
  24   1    -0.01   0.06  -0.05    -0.07  -0.02   0.02    -0.04   0.02  -0.01
  25   1    -0.00   0.03  -0.11     0.07  -0.06   0.02     0.03  -0.02  -0.01
  26   1    -0.13  -0.12  -0.11    -0.00   0.10   0.11    -0.02   0.02   0.03
  27   1    -0.09   0.01   0.03     0.03  -0.00   0.04    -0.00   0.02   0.04
  28   1     0.04   0.05   0.04    -0.04  -0.01   0.08    -0.01   0.02   0.02
  29   7     0.05  -0.00  -0.03    -0.01   0.12  -0.00    -0.00  -0.15   0.04
  30   6     0.02  -0.01   0.03     0.03  -0.02  -0.02    -0.01   0.01  -0.04
  31   7     0.00  -0.00  -0.02     0.12  -0.10  -0.03    -0.19   0.18   0.11
  32   6    -0.00  -0.02  -0.00     0.09   0.06   0.09    -0.14  -0.21  -0.12
  33   6     0.01  -0.00  -0.01    -0.04   0.01   0.02     0.16   0.03  -0.13
  34   6     0.00   0.00   0.00     0.00   0.00   0.01    -0.12   0.08   0.01
  35   6    -0.00   0.00   0.00     0.00  -0.01  -0.01    -0.04  -0.09  -0.01
  36   6    -0.01  -0.03   0.04     0.03   0.00   0.02     0.05   0.06  -0.05
  37   6    -0.04   0.00  -0.01    -0.06  -0.11   0.05     0.05   0.15  -0.06
  38   6    -0.04   0.06  -0.00    -0.08   0.01  -0.01     0.06   0.01   0.02
  39   6     0.02   0.03   0.01    -0.07   0.04  -0.07     0.11  -0.06   0.10
  40   1     0.00  -0.00   0.02     0.01   0.02   0.00    -0.02  -0.04   0.11
  41   1    -0.01  -0.02  -0.00     0.02   0.03   0.03    -0.05  -0.19  -0.06
  42   1     0.00   0.00   0.00    -0.01  -0.01  -0.07     0.04   0.02   0.18
  43   1     0.01  -0.00  -0.01    -0.08  -0.00   0.03     0.23   0.05  -0.09
  44   1    -0.00   0.00   0.00     0.01  -0.01  -0.00    -0.14   0.11   0.04
  45   1    -0.00  -0.00   0.00    -0.00   0.01  -0.01     0.03  -0.02   0.14
  46   1    -0.00   0.02   0.00    -0.00   0.01  -0.00    -0.02  -0.11   0.01
  47   1     0.00  -0.00  -0.01    -0.00  -0.01  -0.02     0.02   0.01   0.08
  48   1    -0.01  -0.01  -0.01     0.01   0.01   0.04     0.01   0.04   0.03
  49   1    -0.01  -0.02   0.02     0.03   0.03  -0.01     0.05   0.03  -0.03
  50   1    -0.03  -0.01  -0.01    -0.04  -0.03   0.01     0.03   0.01  -0.01
  51   1     0.01  -0.00  -0.02    -0.01  -0.03   0.00     0.02   0.04  -0.03
  52   1    -0.00   0.00  -0.02     0.03   0.02  -0.01    -0.04  -0.03   0.01
  53   1    -0.02   0.04  -0.01    -0.05   0.01  -0.01     0.04   0.01   0.01
  54   1     0.01   0.02   0.00    -0.01   0.01  -0.02     0.04  -0.02   0.03
  55   1     0.01  -0.01  -0.00    -0.02  -0.01  -0.02     0.03   0.00   0.01
  56   6     0.12  -0.10   0.31    -0.01   0.09   0.06    -0.01  -0.04  -0.09
  57   8    -0.14   0.06   0.05    -0.05  -0.01   0.06     0.05  -0.00  -0.04
  58   6    -0.01  -0.08  -0.32     0.06  -0.06   0.16    -0.06   0.07  -0.08
  59   8     0.06   0.13  -0.00    -0.07  -0.09   0.05     0.05   0.05  -0.04
                     43                     44                     45
                        a                      a                      a 
 Frequencies --   512.2235               513.8449               523.1095
 Red. masses --     5.8657                10.2897                21.8245
 Frc consts  --     0.0000                 0.0000                 0.0000
 IR Inten    --     1.2941                 4.7563                 6.3034
 Raman Activ --     0.0000                 0.0000                 0.0000
 Depolar     --     0.0000                 0.0000                 0.0000
 Atom AN      X      Y      Z        X      Y      Z        X      Y      Z
   1  28     0.00   0.00  -0.03    -0.04  -0.03   0.19     0.10   0.12  -0.43
   2   7    -0.03  -0.01  -0.04     0.07   0.02  -0.02    -0.03   0.04  -0.01
   3   6     0.00  -0.07   0.03     0.00  -0.12   0.03    -0.01   0.02   0.01
   4   7     0.03   0.14  -0.01    -0.01  -0.03  -0.06    -0.00   0.05   0.01
   5   6    -0.19  -0.08   0.03    -0.10  -0.06  -0.10    -0.02   0.00   0.04
   6   6     0.14  -0.16   0.01     0.11  -0.12   0.02     0.00  -0.00  -0.00
   7   6     0.03   0.16   0.10     0.02   0.16   0.09     0.00   0.00   0.00
   8   6    -0.12  -0.03   0.05    -0.12  -0.04   0.05    -0.01  -0.00  -0.00
[...]
   6   6     0.00  -0.00  -0.00    -0.00   0.00  -0.00    -0.05  -0.00   0.15
   7   6     0.00   0.00  -0.00     0.00   0.00   0.00     0.02   0.07   0.13
   8   6     0.00   0.00  -0.00     0.00   0.00   0.00     0.09   0.04   0.02
   9   6    -0.00  -0.00   0.00    -0.00  -0.00   0.00     0.00  -0.00   0.01
  10   6    -0.00   0.00   0.00     0.00   0.00  -0.00    -0.00  -0.00   0.00
  11   6     0.00   0.00   0.00    -0.00   0.00  -0.00     0.00   0.01  -0.00
  12   6    -0.00   0.00   0.00    -0.00   0.00   0.00     0.00  -0.00  -0.00
  13   1    -0.01  -0.00  -0.00    -0.00  -0.00  -0.00     0.10   0.01   0.01
  14   1     0.00  -0.00   0.00     0.00  -0.00   0.00    -0.03   0.03  -0.05
  15   1    -0.01   0.01   0.01     0.00  -0.00  -0.00     0.22  -0.15  -0.17
  16   1     0.00  -0.00   0.01     0.00  -0.00   0.01    -0.02   0.16  -0.37
  17   1     0.00  -0.00   0.00    -0.00   0.00  -0.00    -0.01   0.20  -0.45
  18   1    -0.00  -0.00  -0.00    -0.00  -0.00  -0.00    -0.06  -0.47  -0.01
  19   1     0.00  -0.00   0.00     0.00   0.00  -0.00     0.02  -0.04   0.12
  20   1    -0.00  -0.00  -0.00    -0.01  -0.00  -0.00    -0.36  -0.11  -0.18
  21   1    -0.00   0.00   0.00     0.00  -0.00   0.00    -0.01   0.00   0.00
  22   1     0.00   0.00  -0.00     0.00   0.00  -0.01     0.01   0.01  -0.03
  23   1    -0.00  -0.00   0.00     0.00   0.00  -0.00    -0.00   0.00  -0.00
  24   1     0.00   0.00  -0.00    -0.00  -0.00   0.00     0.01   0.00  -0.00
  25   1    -0.00  -0.00  -0.00     0.00   0.00   0.00    -0.00  -0.00  -0.01
  26   1     0.00   0.00  -0.00    -0.00  -0.00   0.00     0.00  -0.02   0.02
  27   1    -0.00   0.00  -0.00    -0.00   0.00  -0.00     0.00  -0.00   0.00
  28   1     0.00  -0.00  -0.00     0.00  -0.00  -0.00    -0.00   0.00   0.00
  29   7     0.00   0.00   0.00    -0.00  -0.00  -0.00    -0.00  -0.00  -0.00
  30   6    -0.00  -0.00   0.00     0.00   0.00   0.00     0.00   0.00   0.00
  31   7     0.01   0.00  -0.00    -0.00  -0.00   0.00    -0.00  -0.00  -0.00
  32   6     0.05   0.11   0.01    -0.02  -0.05  -0.01     0.00   0.00   0.00
  33   6     0.15   0.06   0.05    -0.12  -0.03  -0.10    -0.00   0.00  -0.00
  34   6    -0.10   0.08   0.05    -0.10   0.07   0.02    -0.00   0.00   0.00
  35   6    -0.01  -0.03   0.00     0.03  -0.12   0.12    -0.00   0.00  -0.01
  36   6     0.00   0.00   0.01     0.01   0.01   0.04     0.00   0.00   0.00
  37   6     0.00   0.01   0.00    -0.00  -0.00  -0.00     0.00   0.00   0.00
  38   6     0.00  -0.00  -0.00    -0.00   0.00  -0.00    -0.00   0.00   0.00
  39   6     0.00   0.00   0.00     0.00   0.00   0.00    -0.00   0.00   0.00
  40   1    -0.16  -0.44   0.08     0.07   0.20  -0.04    -0.00  -0.00   0.00
  41   1    -0.00   0.04  -0.11     0.00  -0.02   0.06    -0.00   0.00  -0.00
  42   1    -0.52  -0.19  -0.01     0.29   0.11  -0.01    -0.00  -0.00  -0.00
  43   1    -0.04   0.00  -0.18     0.11   0.01   0.37     0.00   0.00   0.00
  44   1     0.02   0.02   0.12     0.04   0.02   0.18     0.00   0.00   0.01
  45   1     0.36  -0.32  -0.29     0.30  -0.27  -0.25     0.01  -0.01  -0.01
  46   1     0.01  -0.00   0.05    -0.07  -0.04  -0.22     0.01   0.00   0.02
  47   1    -0.01   0.13  -0.06    -0.04   0.49  -0.20     0.00  -0.01   0.01
  48   1     0.00   0.00   0.00     0.02   0.02   0.00     0.00   0.00   0.00
  49   1    -0.02  -0.01  -0.04    -0.06  -0.06  -0.15    -0.00  -0.00  -0.01
  50   1    -0.00   0.00   0.01    -0.00  -0.00   0.00     0.00  -0.00  -0.00
  51   1    -0.01  -0.03  -0.01     0.00   0.01   0.00    -0.00  -0.00  -0.00
  52   1     0.00  -0.00  -0.00     0.00  -0.01   0.01     0.00  -0.01   0.01
  53   1    -0.00   0.00   0.01    -0.00   0.00   0.00     0.01  -0.00  -0.02
  54   1     0.00  -0.00  -0.00     0.00  -0.00  -0.00     0.00  -0.00  -0.00
  55   1    -0.02  -0.00   0.00    -0.01  -0.00   0.00     0.02   0.00  -0.00
  56   6    -0.00   0.00   0.00    -0.00  -0.00   0.00     0.00  -0.00  -0.00
  57   8     0.00  -0.00  -0.00     0.00   0.00   0.00    -0.00   0.00   0.00
  58   6    -0.00  -0.00   0.00    -0.00  -0.00   0.00    -0.00  -0.00   0.00
  59   8     0.00   0.00  -0.00     0.00   0.00  -0.00     0.00   0.00  -0.00
                    163                    164                    165
                        a                      a                      a 
 Frequencies --  2985.7627              2986.2496              2986.5989
 Red. masses --     1.7780                 1.7307                 1.7497
 Frc consts  --     0.0000                 0.0000                 0.0000
 IR Inten    --    89.9790                40.8599                63.7077
 Raman Activ --     0.0000                 0.0000                 0.0000
 Depolar     --     0.0000                 0.0000                 0.0000
 Atom AN      X      Y      Z        X      Y      Z        X      Y      Z
   1  28     0.00  -0.00  -0.00     0.00   0.00  -0.00     0.00   0.00  -0.00
   2   7     0.00  -0.00  -0.00    -0.00   0.00   0.00     0.00  -0.00  -0.00
   3   6     0.00  -0.00   0.00     0.00   0.00  -0.00    -0.00   0.00   0.00
   4   7    -0.00   0.00   0.00     0.00  -0.00  -0.00    -0.00   0.00   0.00
   5   6    -0.03  -0.00  -0.00     0.03   0.00   0.00    -0.02  -0.00  -0.00
   6   6    -0.06   0.06  -0.01     0.07  -0.07   0.00    -0.04   0.04  -0.00
   7   6    -0.00   0.00   0.02     0.00  -0.01  -0.03     0.00   0.01   0.02
   8   6    -0.03  -0.05   0.07     0.04   0.05  -0.08    -0.02  -0.02   0.04
   9   6    -0.01  -0.01   0.02     0.01   0.01  -0.03    -0.01  -0.01   0.02
  10   6    -0.00   0.00   0.00     0.00  -0.00  -0.00    -0.00   0.00   0.00
  11   6    -0.00   0.00  -0.01    -0.00  -0.00  -0.00     0.00   0.01  -0.00
  12   6    -0.00   0.00   0.00    -0.00   0.00   0.00    -0.00   0.00   0.00
  13   1     0.09   0.01   0.00    -0.12  -0.01  -0.01     0.07   0.01   0.00
  14   1    -0.00   0.00  -0.00     0.01  -0.00   0.01    -0.00   0.00  -0.00
  15   1     0.22  -0.14  -0.19    -0.27   0.17   0.23     0.16  -0.10  -0.14
  16   1     0.00  -0.08   0.22     0.00   0.09  -0.24    -0.00  -0.05   0.15
  17   1    -0.00   0.03  -0.08     0.00  -0.05   0.11    -0.00   0.03  -0.06
  18   1    -0.01  -0.05   0.00     0.01   0.07  -0.00    -0.01  -0.05  -0.00
  19   1    -0.02   0.13  -0.34     0.02  -0.15   0.38    -0.01   0.07  -0.18
  20   1     0.13   0.03   0.08    -0.15  -0.04  -0.09     0.07   0.02   0.04
  21   1     0.01  -0.00   0.00    -0.01   0.01  -0.00     0.01  -0.00   0.00
  22   1     0.02   0.03  -0.08    -0.03  -0.05   0.12     0.02   0.02  -0.05
  23   1    -0.00  -0.00   0.00     0.00   0.00  -0.00    -0.00  -0.00   0.00
  24   1     0.01   0.00  -0.00    -0.01  -0.00   0.01     0.01   0.00  -0.00
  25   1     0.00   0.00   0.01     0.00   0.00   0.01    -0.00   0.00  -0.00
  26   1     0.00  -0.02   0.02    -0.00   0.00  -0.00     0.00  -0.02   0.02
  27   1    -0.00   0.00  -0.00    -0.00   0.00  -0.00    -0.00   0.00  -0.00
  28   1     0.00  -0.00  -0.00     0.00  -0.00  -0.00     0.00  -0.00  -0.00
  29   7     0.00  -0.00   0.00    -0.00  -0.00  -0.00     0.00   0.00  -0.00
  30   6     0.00   0.00   0.00    -0.00   0.00   0.00    -0.00   0.00   0.00
  31   7    -0.00  -0.00  -0.00     0.00   0.00  -0.00     0.00   0.00  -0.00
  32   6    -0.00  -0.00  -0.00     0.00   0.01   0.00     0.01   0.02   0.00
  33   6    -0.02  -0.01  -0.01     0.02   0.01  -0.01     0.08   0.03   0.01
  34   6    -0.04   0.02  -0.01     0.02  -0.02   0.00     0.10  -0.07   0.02
  35   6    -0.01   0.05  -0.05     0.01  -0.03   0.03     0.04  -0.13   0.13
  36   6    -0.00  -0.00  -0.01     0.00   0.00   0.01     0.01   0.01   0.03
  37   6    -0.00   0.00   0.02    -0.00   0.00   0.02     0.00   0.00   0.00
  38   6    -0.03  -0.01   0.21    -0.02  -0.01   0.19     0.00  -0.01   0.03
  39   6    -0.00   0.00   0.02    -0.02   0.00   0.02     0.00   0.00   0.00
  40   1     0.01   0.02  -0.00    -0.01  -0.02   0.00    -0.03  -0.08   0.01
  41   1    -0.00  -0.00   0.00     0.00   0.00  -0.01    -0.00   0.01  -0.03
  42   1     0.07   0.03  -0.00    -0.09  -0.03  -0.00    -0.28  -0.10  -0.01
  43   1     0.01   0.00   0.05     0.02   0.00   0.04     0.00   0.00  -0.02
  44   1     0.03   0.01   0.10    -0.02  -0.01  -0.06    -0.07  -0.02  -0.28
  45   1     0.10  -0.09  -0.08    -0.07   0.06   0.06    -0.28   0.25   0.24
  46   1     0.03   0.02   0.10    -0.02  -0.01  -0.06    -0.08  -0.04  -0.27
  47   1     0.01  -0.19   0.08    -0.01   0.12  -0.05    -0.04   0.51  -0.21
  48   1    -0.00  -0.00   0.00     0.00   0.00   0.00     0.01   0.01   0.00
  49   1     0.01   0.01   0.02    -0.01  -0.01  -0.03    -0.04  -0.04  -0.10
  50   1     0.01  -0.01  -0.04     0.01  -0.01  -0.04     0.00   0.00  -0.00
  51   1    -0.01  -0.01  -0.00    -0.01  -0.01  -0.00    -0.00  -0.01  -0.00
  52   1    -0.09   0.19  -0.14    -0.08   0.17  -0.13    -0.02   0.05  -0.04
  53   1     0.19  -0.15  -0.60     0.17  -0.14  -0.55     0.02  -0.02  -0.06
  54   1     0.01  -0.01  -0.05     0.01  -0.01  -0.04     0.00  -0.00  -0.01
  55   1    -0.01   0.00   0.00     0.06   0.00  -0.00    -0.00  -0.00   0.00
  56   6    -0.00   0.00   0.00    -0.00   0.00   0.00    -0.00  -0.00   0.00
  57   8     0.00  -0.00  -0.00     0.00  -0.00  -0.00     0.00   0.00  -0.00
  58   6    -0.00  -0.00   0.00     0.00  -0.00  -0.00    -0.00  -0.00   0.00
  59   8     0.00   0.00  -0.00    -0.00  -0.00   0.00     0.00   0.00  -0.00
                    166                    167                    168
                        a                      a                      a 
 Frequencies --  2989.3196              2989.9109              2990.1991
 Red. masses --     1.7208                 1.6468                 1.7419
 Frc consts  --     0.0000                 0.0000                 0.0000
 IR Inten    --    12.3498                15.3683               135.0846
 Raman Activ --     0.0000                 0.0000                 0.0000
 Depolar     --     0.0000                 0.0000                 0.0000
 Atom AN      X      Y      Z        X      Y      Z        X      Y      Z
   1  28     0.00  -0.00  -0.00     0.00   0.00   0.00     0.00   0.00  -0.00
   2   7     0.00  -0.00  -0.00    -0.00   0.00   0.00     0.00  -0.00  -0.00
   3   6    -0.00   0.00   0.00     0.00   0.00  -0.00    -0.00  -0.00   0.00
   4   7     0.00   0.00   0.00    -0.00  -0.00  -0.00     0.00   0.00   0.00
   5   6     0.02  -0.01   0.01    -0.00   0.00  -0.01     0.01  -0.01   0.01
   6   6     0.05  -0.08   0.08    -0.01   0.02  -0.03     0.03  -0.05   0.06
   7   6    -0.00  -0.06   0.04     0.00   0.02  -0.02    -0.00  -0.04   0.03
   8   6    -0.03  -0.06   0.09     0.01   0.02  -0.03    -0.02  -0.04   0.06
   9   6    -0.01  -0.02   0.04     0.00   0.01  -0.02    -0.01  -0.01   0.03
  10   6     0.00   0.01  -0.01     0.00   0.01  -0.01     0.00  -0.01   0.01
  11   6    -0.03   0.10  -0.13    -0.02   0.07  -0.10     0.03  -0.11   0.15
  12   6    -0.00   0.01  -0.01    -0.00   0.01  -0.01     0.00  -0.02   0.01
  13   1    -0.06  -0.01  -0.00     0.01   0.00  -0.00    -0.03  -0.00   0.00
  14   1    -0.01   0.02  -0.04     0.01  -0.01   0.02    -0.01   0.02  -0.03
  15   1    -0.19   0.11   0.17     0.05  -0.03  -0.05    -0.11   0.07   0.10
  16   1    -0.01   0.18  -0.45     0.00  -0.06   0.15    -0.01   0.12  -0.30
  17   1    -0.00   0.05  -0.13     0.00  -0.02   0.05    -0.00   0.04  -0.10
  18   1     0.02   0.14   0.01    -0.01  -0.04  -0.00     0.01   0.09   0.01
  19   1    -0.02   0.16  -0.41     0.01  -0.05   0.14    -0.01   0.11  -0.28
  20   1     0.14   0.04   0.08    -0.05  -0.01  -0.03     0.08   0.02   0.05
  21   1     0.00  -0.00   0.01     0.00   0.00  -0.00    -0.00  -0.00   0.00
  22   1     0.04   0.05  -0.13    -0.02  -0.02   0.06     0.03   0.05  -0.11
  23   1     0.00  -0.02   0.01     0.00  -0.02   0.02    -0.00   0.03  -0.03
  24   1    -0.02  -0.00   0.01    -0.01  -0.00   0.00     0.01  -0.00  -0.00
  25   1     0.11   0.06   0.14     0.08   0.04   0.09    -0.11  -0.06  -0.13
  26   1     0.00  -0.41   0.35     0.00  -0.31   0.26    -0.01   0.47  -0.39
  27   1     0.00  -0.02   0.02     0.00  -0.02   0.02    -0.00   0.03  -0.04
  28   1     0.01  -0.01  -0.01     0.01  -0.01  -0.01    -0.01   0.02   0.01
  29   7     0.00   0.00   0.00    -0.00  -0.00  -0.00     0.00  -0.00   0.00
  30   6     0.00  -0.00  -0.00     0.00   0.00   0.00     0.00   0.00   0.00
  31   7    -0.00   0.00  -0.00    -0.00  -0.00  -0.00    -0.00  -0.00  -0.00
  32   6     0.00   0.00  -0.00    -0.01  -0.02   0.02    -0.00  -0.01   0.01
  33   6     0.00   0.00  -0.01    -0.03  -0.02   0.17    -0.01  -0.01   0.10
  34   6     0.00  -0.00  -0.00    -0.01   0.02   0.04    -0.01   0.01   0.03
  35   6     0.00   0.00   0.00     0.00  -0.05   0.01     0.00  -0.04   0.01
  36   6     0.00   0.00   0.00     0.00  -0.00   0.01     0.00   0.00   0.01
  37   6     0.00  -0.00  -0.00    -0.00  -0.00   0.00    -0.00  -0.00   0.00
  38   6     0.00  -0.00  -0.00    -0.00   0.00   0.01    -0.00   0.00   0.02
  39   6     0.01  -0.00  -0.00    -0.00   0.00   0.00     0.00   0.00   0.00
  40   1    -0.00  -0.01   0.00     0.03   0.08  -0.01     0.02   0.04  -0.01
  41   1     0.00  -0.00   0.00    -0.00   0.01  -0.05    -0.00   0.01  -0.03
  42   1    -0.03  -0.01  -0.00     0.33   0.12   0.03     0.19   0.07   0.02
  43   1     0.02   0.00   0.05    -0.23  -0.03  -0.66    -0.14  -0.02  -0.39
  44   1     0.00  -0.00  -0.00    -0.03  -0.00  -0.08    -0.02  -0.00  -0.06
  45   1    -0.01   0.01   0.01     0.08  -0.07  -0.06     0.04  -0.03  -0.03
  46   1    -0.00  -0.00  -0.01     0.01  -0.00   0.05     0.01  -0.00   0.02
  47   1     0.00  -0.00   0.00    -0.02   0.19  -0.09    -0.01   0.14  -0.06
  48   1    -0.00  -0.00   0.00     0.01   0.01  -0.00     0.01   0.01  -0.00
  49   1    -0.00  -0.00  -0.00    -0.01  -0.01  -0.03    -0.01  -0.01  -0.03
  50   1    -0.00   0.00   0.00     0.00  -0.00  -0.02     0.00  -0.00  -0.01
  51   1     0.00  -0.00  -0.00     0.00   0.01   0.00     0.00   0.00   0.00
  52   1    -0.00   0.01  -0.01    -0.00   0.01  -0.01    -0.00   0.01  -0.00
  53   1    -0.00   0.00   0.02     0.01  -0.01  -0.05     0.02  -0.01  -0.05
  54   1    -0.00   0.00   0.00     0.00  -0.00  -0.01     0.00  -0.00  -0.01
  55   1    -0.02  -0.00   0.00     0.01   0.00  -0.00    -0.01  -0.00   0.00
  56   6     0.00  -0.00  -0.00    -0.00   0.00   0.00    -0.00   0.00   0.00
  57   8    -0.00   0.00   0.00     0.00   0.00  -0.00     0.00  -0.00  -0.00
  58   6    -0.00  -0.00   0.00     0.00   0.00  -0.00    -0.00  -0.00   0.00
  59   8     0.00   0.00  -0.00    -0.00  -0.00   0.00     0.00   0.00  -0.00
                    169                    170                    171
                        a                      a                      a 
 Frequencies --  2997.9761              3000.6688              3002.5312
 Red. masses --     1.5718                 1.5881                 1.5967
 Frc consts  --     0.0000                 0.0000                 0.0000
 IR Inten    --    46.6290                36.7066                48.2574
 Raman Activ --     0.0000                 0.0000                 0.0000
 Depolar     --     0.0000                 0.0000                 0.0000
 Atom AN      X      Y      Z        X      Y      Z        X      Y      Z
   1  28    -0.00   0.00  -0.00     0.00   0.00   0.00    -0.00   0.00   0.00
   2   7     0.00  -0.00  -0.00    -0.00   0.00   0.00    -0.00   0.00   0.00
   3   6    -0.00   0.00   0.00     0.00  -0.00  -0.00     0.00  -0.00   0.00
   4   7     0.00  -0.00  -0.00    -0.00   0.00   0.00     0.00  -0.00   0.00
   5   6    -0.00   0.00  -0.00    -0.00   0.00  -0.00    -0.00   0.00  -0.00
   6   6    -0.00   0.00  -0.00    -0.00   0.00  -0.00    -0.00   0.00  -0.00
   7   6    -0.00   0.00  -0.00    -0.00  -0.00  -0.00     0.00   0.00   0.00
   8   6    -0.00  -0.00   0.01    -0.00  -0.00  -0.00     0.00   0.00  -0.00
   9   6     0.00   0.00  -0.00     0.00   0.00  -0.00    -0.00   0.00  -0.00
  10   6     0.00   0.00  -0.00     0.00   0.00  -0.00    -0.02  -0.00  -0.00
  11   6     0.00   0.00  -0.00     0.00   0.00  -0.00    -0.14  -0.12  -0.14
  12   6    -0.00   0.00  -0.00    -0.00   0.00   0.00     0.00  -0.01  -0.01
  13   1     0.00   0.00  -0.00     0.00   0.00   0.00     0.01   0.00   0.00
  14   1     0.00  -0.00   0.00     0.00  -0.00   0.00     0.00  -0.00   0.00
  15   1     0.00  -0.00  -0.00     0.00  -0.00  -0.00     0.01  -0.01  -0.01
  16   1     0.00  -0.00   0.01     0.00  -0.00   0.00    -0.00  -0.00   0.01
  17   1     0.00  -0.00   0.01     0.00  -0.00   0.00    -0.00   0.00  -0.00
  18   1     0.00   0.00  -0.00     0.00   0.00  -0.00    -0.00  -0.01  -0.00
  19   1    -0.00   0.01  -0.03    -0.00  -0.00   0.00     0.00  -0.00   0.01
  20   1     0.01   0.00   0.01     0.01   0.00   0.00    -0.01  -0.00  -0.00
  21   1    -0.00   0.00   0.00    -0.00  -0.00  -0.00     0.00  -0.00  -0.00
  22   1    -0.00  -0.00   0.01    -0.00  -0.00   0.00    -0.00  -0.00   0.00
  23   1     0.00  -0.00   0.00     0.00  -0.00   0.00    -0.00  -0.01   0.01
  24   1     0.00   0.00  -0.00    -0.00  -0.00   0.00     0.04   0.01  -0.02
  25   1    -0.01  -0.00  -0.01    -0.00  -0.00  -0.00     0.53   0.20   0.72
  26   1     0.00  -0.01   0.01     0.00  -0.00   0.00    -0.02   0.22  -0.22
  27   1     0.00  -0.00   0.00    -0.00   0.00  -0.00     0.00  -0.01   0.01
  28   1     0.00  -0.00  -0.00     0.00  -0.00  -0.00    -0.02   0.04   0.02
  29   7     0.00   0.00   0.00     0.00   0.00   0.00    -0.00  -0.00   0.00
  30   6     0.00   0.00   0.00    -0.00  -0.00  -0.00     0.00   0.00   0.00
  31   7    -0.00  -0.00   0.00    -0.00   0.00   0.00    -0.00  -0.00  -0.00
  32   6     0.00   0.00  -0.00    -0.00  -0.00  -0.01     0.00   0.00  -0.00
  33   6     0.00   0.00   0.00    -0.01  -0.00  -0.04     0.00   0.00  -0.00
  34   6     0.00  -0.00   0.00     0.01  -0.02  -0.05     0.00  -0.00  -0.00
  35   6     0.00   0.00   0.01    -0.06  -0.12  -0.17     0.00  -0.00   0.00
  36   6     0.00   0.00   0.00    -0.02  -0.02  -0.04     0.00   0.00   0.00
  37   6     0.00   0.01   0.00     0.00   0.00  -0.00     0.00   0.00  -0.00
  38   6    -0.11   0.19  -0.07    -0.00   0.01  -0.01    -0.00   0.00  -0.00
  39   6    -0.02   0.00  -0.00    -0.00  -0.00  -0.00     0.00   0.00  -0.00
  40   1    -0.00  -0.01   0.00     0.00   0.01  -0.00    -0.00  -0.00   0.00
  41   1     0.00   0.00   0.00     0.00  -0.01   0.03     0.00   0.00  -0.00
  42   1    -0.02  -0.01  -0.00    -0.01  -0.01  -0.00    -0.00  -0.00  -0.00
  43   1     0.00   0.00   0.00     0.04   0.00   0.13     0.00   0.00   0.00
  44   1    -0.00  -0.00  -0.01     0.03   0.00   0.09    -0.00  -0.00  -0.00
  45   1    -0.01   0.01   0.01    -0.08   0.07   0.06    -0.00   0.00   0.00
  46   1    -0.01  -0.00  -0.04     0.25   0.06   0.80     0.00  -0.00   0.00
  47   1     0.00  -0.00   0.00    -0.04   0.37  -0.19    -0.00   0.00  -0.00
  48   1    -0.00  -0.00   0.00     0.02   0.01  -0.01    -0.00  -0.00   0.00
  49   1    -0.00  -0.00  -0.01     0.05   0.05   0.13    -0.00  -0.00  -0.00
  50   1    -0.00   0.00   0.01    -0.00   0.00   0.01    -0.00   0.00   0.00
  51   1    -0.02  -0.04  -0.02    -0.00  -0.00  -0.00    -0.00  -0.00  -0.00
  52   1     0.30  -0.62   0.58     0.01  -0.03   0.02     0.00  -0.01   0.01
  53   1     0.09  -0.05  -0.35     0.00   0.00  -0.00    -0.00   0.00  -0.00
  54   1    -0.01   0.00   0.01    -0.00   0.00   0.01    -0.00   0.00   0.00
  55   1     0.08   0.00  -0.01     0.00   0.00  -0.00    -0.00   0.00  -0.00
  56   6     0.00  -0.00  -0.00     0.00  -0.00  -0.00     0.00  -0.00  -0.00
  57   8    -0.00   0.00   0.00    -0.00   0.00   0.00    -0.00   0.00   0.00
  58   6    -0.00  -0.00   0.00     0.00   0.00  -0.00    -0.00  -0.00   0.00
  59   8     0.00   0.00  -0.00    -0.00  -0.00   0.00     0.00   0.00  -0.00
