      -----------------------------------------------------------      
     |                   =====================                   |     
     |                           x T B                           |     
     |                   =====================                   |     
     |                         S. Grimme                         |     
     |          Mulliken Center for Theoretical Chemistry        |     
     |                    University of Bonn                     |     
      -----------------------------------------------------------      

   * xtb version 6.5.0 (97a52f5) compiled by 'conda@d2599ee0d4f4' on 2022-05-15

   xtb is free software: you can redistribute it and/or modify it under
   the terms of the GNU Lesser General Public License as published by
   the Free Software Foundation, either version 3 of the License, or
   (at your option) any later version.
   
   xtb is distributed in the hope that it will be useful,
   but WITHOUT ANY WARRANTY; without even the implied warranty of
   MERCHANTABILITY or FITNESS FOR A PARTICULAR PURPOSE.  See the
   GNU Lesser General Public License for more details.
   
   Cite this work as:
   * C. Bannwarth, E. Caldeweyher, S. Ehlert, A. Hansen, P. Pracht,
     J. Seibert, S. Spicher, S. Grimme, WIREs Comput. Mol. Sci., 2020, 11,
     e01493. DOI: 10.1002/wcms.1493
   
   for GFN2-xTB:
   * C. Bannwarth, S. Ehlert and S. Grimme., J. Chem. Theory Comput., 2019,
     15, 1652-1671. DOI: 10.1021/acs.jctc.8b01176
   for GFN1-xTB:
   * S. Grimme, C. Bannwarth, P. Shushkov, J. Chem. Theory Comput., 2017,
     13, 1989-2009. DOI: 10.1021/acs.jctc.7b00118
   for GFN0-xTB:
   * P. Pracht, E. Caldeweyher, S. Ehlert, S. Grimme, ChemRxiv, 2019, preprint.
     DOI: 10.26434/chemrxiv.8326202.v1
   for GFN-FF:
   * S. Spicher and S. Grimme, Angew. Chem. Int. Ed., 2020, 59, 15665-15673.
     DOI: 10.1002/anie.202004239
   
   for ALPB and GBSA implicit solvation:
   * S. Ehlert, M. Stahn, S. Spicher, S. Grimme, J. Chem. Theory Comput.,
     2021, 17, 4250-4261. DOI: 10.1021/acs.jctc.1c00471
   
   for DFT-D4:
   * E. Caldeweyher, C. Bannwarth and S. Grimme, J. Chem. Phys., 2017,
     147, 034112. DOI: 10.1063/1.4993215
   * E. Caldeweyher, S. Ehlert, A. Hansen, H. Neugebauer, S. Spicher,
     C. Bannwarth and S. Grimme, J. Chem. Phys., 2019, 150, 154122.
     DOI: 10.1063/1.5090222
   * E. Caldeweyher, J.-M. Mewes, S. Ehlert and S. Grimme, Phys. Chem. Chem. Phys.
     2020, 22, 8499-8512. DOI: 10.1039/D0CP00502A
   
   for sTDA-xTB:
   * S. Grimme and C. Bannwarth, J. Chem. Phys., 2016, 145, 054103.
     DOI: 10.1063/1.4959605
   
   in the mass-spec context:
   * V. Asgeirsson, C. Bauer and S. Grimme, Chem. Sci., 2017, 8, 4879.
     DOI: 10.1039/c7sc00601b
   * J. Koopman and S. Grimme, ACS Omega 2019, 4, 12, 15120-15133.
     DOI: 10.1021/acsomega.9b02011
   
   for metadynamics refer to:
   * S. Grimme, J. Chem. Theory Comput., 2019, 155, 2847-2862
     DOI: 10.1021/acs.jctc.9b00143
   
   for SPH calculations refer to:
   * S. Spicher and S. Grimme, J. Chem. Theory Comput., 2021, 17, 1701-1714
     DOI: 10.1021/acs.jctc.0c01306
   
   with help from (in alphabetical order)
   P. Atkinson, C. Bannwarth, F. Bohle, G. Brandenburg, E. Caldeweyher
   M. Checinski, S. Dohm, S. Ehlert, S. Ehrlich, I. Gerasimov, C. Hölzer
   A. Katbashev, J. Koopman, C. Lavigne, S. Lehtola, F. März, M. Müller,
   F. Musil, H. Neugebauer, J. Pisarek, C. Plett, P. Pracht, F. Pultar,
   J. Seibert, P. Shushkov, S. Spicher, M. Stahn, M. Steiner, T. Strunk,
   J. Stückrath, T. Rose, and J. Unsleber
   
 * started run on 2022/05/27 at 18:12:04.157     

           -------------------------------------------------
          |                Calculation Setup                |
           -------------------------------------------------

          program call               : xtb struc.xyz --gfn2 --hess
          hostname                   : fedora
          coordinate file            : struc.xyz
          omp threads                :                     1

   ID    Z sym.   atoms
    1   28 Ni     1
    2    7 N      2, 4, 29, 31
    3    6 C      3, 5-12, 30, 32-39, 56, 58
    4    1 H      13-28, 40-55
    5    8 O      57, 59

molecular fragmentation (1/2 indicates fragments):
11111111111111111111111111111111111111111111111111111111122
# atoms in fragment 1/2:    57     2
 fragment masses (1/2) :      391.18       28.01
CMA distance (Bohr)    :   6.608
constraining FC (au)   :  0.0500

           -------------------------------------------------
          |                 G F N 2 - x T B                 |
           -------------------------------------------------

        Reference                      10.1021/acs.jctc.8b01176
      * Hamiltonian:
        H0-scaling (s, p, d)           1.850000    2.230000    2.230000
        zeta-weighting                 0.500000
      * Dispersion:
        s8                             2.700000
        a1                             0.520000
        a2                             5.000000
        s9                             5.000000
      * Repulsion:
        kExp                           1.500000    1.000000
        rExp                           1.000000
      * Coulomb:
        alpha                          2.000000
        third order                    shell-resolved
        anisotropic                    true
        a3                             3.000000
        a5                             4.000000
        cn-shift                       1.200000
        cn-exp                         4.000000
        max-rad                        5.000000


          ...................................................
          :                      SETUP                      :
          :.................................................:
          :  # basis functions                 146          :
          :  # atomic orbitals                 145          :
          :  # shells                           87          :
          :  # electrons                       154          :
          :  max. iterations                   250          :
          :  Hamiltonian                  GFN2-xTB          :
          :  restarted?                      false          :
          :  GBSA solvation                  false          :
          :  PC potential                    false          :
          :  electronic temp.          300.0000000     K    :
          :  accuracy                    1.0000000          :
          :  -> integral cutoff          0.2500000E+02      :
          :  -> integral neglect         0.1000000E-07      :
          :  -> SCF convergence          0.1000000E-05 Eh   :
          :  -> wf. convergence          0.1000000E-03 e    :
          :  Broyden damping             0.4000000          :
          ...................................................

 iter      E             dE          RMSdq      gap      omega  full diag
   1    -84.6603998 -0.846604E+02  0.464E+00    3.91       0.0  T
   2    -84.8738935 -0.213494E+00  0.259E+00    3.04       1.0  T
   3    -84.8805486 -0.665507E-02  0.128E+00    2.06       1.0  T
   4    -84.9172313 -0.366827E-01  0.716E-01    2.31       1.0  T
   5    -84.9170048  0.226540E-03  0.264E-01    2.32       1.0  T
   6    -84.9185831 -0.157835E-02  0.191E-01    2.34       1.0  T
   7    -84.9190959 -0.512795E-03  0.118E-01    2.33       1.0  T
   8    -84.9193777 -0.281768E-03  0.499E-02    2.34       1.0  T
   9    -84.9194085 -0.308187E-04  0.213E-02    2.34       1.0  T
  10    -84.9194128 -0.426627E-05  0.113E-02    2.34       1.2  T
  11    -84.9194128 -0.525043E-07  0.636E-03    2.34       2.0  T
  12    -84.9194140 -0.121060E-05  0.300E-03    2.34       4.3  T
  13    -84.9194142 -0.213959E-06  0.977E-04    2.34      13.3  T
  14    -84.9194143 -0.598511E-08  0.479E-04    2.34      27.2  T

   *** convergence criteria satisfied after 14 iterations ***

         #    Occupation            Energy/Eh            Energy/eV
      -------------------------------------------------------------
         1        2.0000           -0.7180682             -19.5396
       ...           ...                  ...                  ...
        71        2.0000           -0.3626786              -9.8690
        72        2.0000           -0.3609017              -9.8206
        73        2.0000           -0.3291522              -8.9567
        74        2.0000           -0.3278493              -8.9212
        75        2.0000           -0.3190469              -8.6817
        76        2.0000           -0.3111496              -8.4668
        77        2.0000           -0.3096624              -8.4263 (HOMO)
        78                         -0.2236838              -6.0867 (LUMO)
        79                         -0.2178965              -5.9293
        80                         -0.2028969              -5.5211
        81                         -0.2010506              -5.4709
        82                         -0.1921348              -5.2283
       ...                                ...                  ...
       145                          1.2942950              35.2196
      -------------------------------------------------------------
                  HL-Gap            0.0859785 Eh            2.3396 eV
             Fermi-level           -0.2666731 Eh           -7.2565 eV

 SCC (total)                   0 d,  0 h,  0 min,  1.034 sec
 SCC setup                      ...        0 min,  0.000 sec (  0.031%)
 Dispersion                     ...        0 min,  0.001 sec (  0.054%)
 classical contributions        ...        0 min,  0.000 sec (  0.014%)
 integral evaluation            ...        0 min,  0.070 sec (  6.729%)
 iterations                     ...        0 min,  0.490 sec ( 47.374%)
 molecular gradient             ...        0 min,  0.461 sec ( 44.594%)
 printout                       ...        0 min,  0.012 sec (  1.202%)

         :::::::::::::::::::::::::::::::::::::::::::::::::::::
         ::                     SUMMARY                     ::
         :::::::::::::::::::::::::::::::::::::::::::::::::::::
         :: total energy             -83.871788685722 Eh    ::
         :: gradient norm              0.000122876699 Eh/a0 ::
         :: HOMO-LUMO gap              2.339595276699 eV    ::
         ::.................................................::
         :: SCC energy               -84.919414250714 Eh    ::
         :: -> isotropic ES            0.078240881966 Eh    ::
         :: -> anisotropic ES          0.016977896705 Eh    ::
         :: -> anisotropic XC          0.038612254248 Eh    ::
         :: -> dispersion             -0.067663676697 Eh    ::
         :: repulsion energy           1.045824398799 Eh    ::
         :: add. restraining           0.000000000000 Eh    ::
         :: total charge               0.000000000000 e     ::
         :::::::::::::::::::::::::::::::::::::::::::::::::::::

           ------------------------------------------------- 
          |                Numerical Hessian                |
           ------------------------------------------------- 
step length          :   0.00500
SCC accuracy         :   0.30000
Hessian scale factor :   1.00000
frozen atoms in %    :   0.00000    0
RMS gradient         :   0.00012
estimated CPU  time      0.38 min
estimated wall time      2.89 min

writing file <hessian>.

 projected vibrational frequencies (cm⁻¹)
eigval :       -0.00    -0.00    -0.00     0.00     0.00     0.00
eigval :       14.79    19.29    24.39    32.65    39.29    41.14
eigval :       47.50    55.71    59.30    69.92    81.56    87.45
eigval :       90.83    96.79    98.43   159.55   170.40   176.51
eigval :      186.65   213.05   229.51   236.65   246.78   249.04
eigval :      265.53   282.09   287.12   318.78   347.29   353.82
eigval :      366.39   367.93   370.32   377.44   417.32   419.86
eigval :      424.16   478.90   483.90   487.05   508.33   511.50
eigval :      512.22   513.84   523.11   598.07   601.04   667.79
eigval :      675.13   734.43   737.02   846.83   848.93   859.88
eigval :      860.47   877.54   879.60   894.09   897.37   905.70
eigval :      907.79   926.66   927.61   952.33   953.03   980.37
eigval :      980.38   995.71   997.69  1024.74  1026.50  1053.60
eigval :     1054.31  1086.44  1088.78  1099.48  1099.76  1112.77
eigval :     1114.23  1127.80  1130.25  1142.46  1142.83  1144.01
eigval :     1145.70  1160.25  1162.07  1190.16  1193.15  1202.01
eigval :     1204.21  1219.04  1219.50  1233.57  1234.10  1243.69
eigval :     1246.23  1257.77  1262.61  1272.20  1276.10  1304.53
eigval :     1306.74  1318.23  1321.08  1328.92  1329.82  1337.38
eigval :     1339.40  1340.44  1341.49  1344.93  1345.77  1354.42
eigval :     1354.54  1361.39  1361.80  1412.66  1414.45  1440.86
eigval :     1445.95  1467.39  1472.98  1474.45  1476.31  1476.81
eigval :     1477.79  1478.49  1479.15  1489.04  1491.31  1491.90
eigval :     1493.81  1499.26  1500.17  1651.09  1659.20  1974.78
eigval :     2002.09  2870.74  2873.58  2894.88  2899.98  2903.53
eigval :     2904.57  2927.02  2927.88  2934.10  2945.49  2955.77
eigval :     2957.93  2958.83  2965.43  2965.92  2966.11  2969.49
eigval :     2971.25  2972.52  2974.22  2975.30  2978.83  2981.80
eigval :     2985.76  2986.25  2986.60  2989.32  2989.91  2990.20
eigval :     2997.98  3000.67  3002.53
           -------------------------------------------------
          |                Property Printout                |
           -------------------------------------------------

    * Orbital Energies and Occupations

         #    Occupation            Energy/Eh            Energy/eV
      -------------------------------------------------------------
         1        2.0000           -0.7180647             -19.5395
       ...           ...                  ...                  ...
        65        2.0000           -0.4241947             -11.5429
        66        2.0000           -0.4208936             -11.4531
        67        2.0000           -0.4197707             -11.4225
        68        2.0000           -0.4172246             -11.3533
        69        2.0000           -0.3852356             -10.4828
        70        2.0000           -0.3796300             -10.3303
        71        2.0000           -0.3626797              -9.8690
        72        2.0000           -0.3609026              -9.8207
        73        2.0000           -0.3291547              -8.9568
        74        2.0000           -0.3278520              -8.9213
        75        2.0000           -0.3190501              -8.6818
        76        2.0000           -0.3111524              -8.4669
        77        2.0000           -0.3096630              -8.4264 (HOMO)
        78                         -0.2236802              -6.0866 (LUMO)
        79                         -0.2178929              -5.9292
        80                         -0.2028938              -5.5210
        81                         -0.2010477              -5.4708
        82                         -0.1921354              -5.2283
        83                         -0.1900519              -5.1716
        84                         -0.0128108              -0.3486
        85                         -0.0097003              -0.2640
        86                          0.0484418               1.3182
        87                          0.0509467               1.3863
        88                          0.0641616               1.7459
       ...                                ...                  ...
       145                          1.2942975              35.2196
      -------------------------------------------------------------
                  HL-Gap            0.0859829 Eh            2.3397 eV
             Fermi-level           -0.2666716 Eh           -7.2565 eV

     #   Z          covCN         q      C6AA      α(0)
     1  28 Ni       2.898    -0.885   202.812    29.385
     2   7 N        2.398    -0.112    23.565     7.208
     3   6 C        2.843     0.150    24.733     8.150
     4   7 N        2.739    -0.099    23.173     7.150
     5   6 C        3.745     0.001    20.629     6.479
     6   6 C        3.801    -0.062    21.683     6.630
     7   6 C        3.802    -0.057    21.603     6.617
     8   6 C        3.802    -0.050    21.469     6.597
     9   6 C        3.811    -0.072    21.867     6.656
    10   6 C        3.754     0.010    20.457     6.449
    11   6 C        3.806    -0.067    21.788     6.645
    12   6 C        3.762     0.018    20.317     6.425
    13   1 H        0.924     0.039     2.468     2.457
    14   1 H        0.924     0.047     2.362     2.404
    15   1 H        0.924     0.034     2.535     2.490
    16   1 H        0.924     0.038     2.472     2.459
    17   1 H        0.924     0.032     2.553     2.499
    18   1 H        0.924     0.030     2.589     2.516
    19   1 H        0.924     0.035     2.514     2.479
    20   1 H        0.924     0.033     2.548     2.496
    21   1 H        0.924     0.121     1.603     1.980
    22   1 H        0.924     0.043     2.409     2.427
    23   1 H        0.923     0.030     2.588     2.516
    24   1 H        0.924     0.033     2.538     2.491
    25   1 H        0.925     0.036     2.506     2.476
    26   1 H        0.924     0.045     2.377     2.411
    27   1 H        0.923     0.034     2.533     2.489
    28   1 H        0.924     0.074     2.038     2.233
    29   7 N        2.397    -0.112    23.579     7.210
    30   6 C        2.846     0.151    24.716     8.148
    31   7 N        2.739    -0.100    23.197     7.153
    32   6 C        3.747     0.001    20.635     6.479
    33   6 C        3.801    -0.061    21.678     6.629
    34   6 C        3.802    -0.058    21.609     6.618
    35   6 C        3.803    -0.052    21.506     6.602
    36   6 C        3.811    -0.071    21.848     6.653
    37   6 C        3.755     0.011    20.447     6.448
    38   6 C        3.806    -0.067    21.786     6.645
    39   6 C        3.764     0.019    20.291     6.421
    40   1 H        0.924     0.038     2.479     2.462
    41   1 H        0.924     0.045     2.377     2.411
    42   1 H        0.924     0.033     2.545     2.495
    43   1 H        0.924     0.041     2.429     2.437
    44   1 H        0.924     0.030     2.586     2.515
    45   1 H        0.924     0.034     2.534     2.490
    46   1 H        0.924     0.050     2.321     2.382
    47   1 H        0.924     0.041     2.442     2.444
    48   1 H        0.924     0.111     1.688     2.032
    49   1 H        0.924     0.039     2.462     2.454
    50   1 H        0.923     0.032     2.557     2.500
    51   1 H        0.924     0.032     2.560     2.502
    52   1 H        0.925     0.034     2.534     2.489
    53   1 H        0.924     0.040     2.452     2.449
    54   1 H        0.924     0.039     2.457     2.451
    55   1 H        0.924     0.065     2.146     2.291
    56   6 C        1.739     0.277    24.945     8.080
    57   8 O        0.856    -0.194    17.975     5.684
    58   6 C        1.740     0.269    25.118     8.107
    59   8 O        0.856    -0.196    17.999     5.688

 Mol. C6AA /au·bohr⁶  :      34072.443497
 Mol. C8AA /au·bohr⁸  :     865235.209672
 Mol. α(0) /au        :        284.583209


Wiberg/Mayer (AO) data.
largest (>0.10) Wiberg bond orders for each atom

 ---------------------------------------------------------------------------
     #   Z sym  total        # sym  WBO       # sym  WBO       # sym  WBO
 ---------------------------------------------------------------------------
     1  28 Ni   3.969 --    58 C    1.183    56 C    1.163     2 N    0.447
                            29 N    0.446    59 O    0.219    57 O    0.210
     2   7 N    3.422 --     3 C    1.633    12 C    1.003     1 Ni   0.447
                             4 N    0.161
     3   6 C    3.967 --     2 N    1.633     4 N    1.211     9 C    0.996
     4   7 N    3.459 --     3 C    1.211     5 C    0.996    10 C    0.990
                             2 N    0.161
     5   6 C    3.977 --     4 N    0.996     6 C    0.994    13 H    0.971
                            14 H    0.964
     6   6 C    3.997 --     7 C    1.010     5 C    0.994    16 H    0.976
                            15 H    0.976
     7   6 C    3.997 --     6 C    1.010     8 C    1.008    18 H    0.977
                            17 H    0.976
     8   6 C    3.997 --     7 C    1.008     9 C    0.993    20 H    0.976
                            19 H    0.975
     9   6 C    3.990 --     3 C    0.996     8 C    0.993    22 H    0.960
                            21 H    0.910
    10   6 C    3.979 --    11 C    1.003     4 N    0.990    24 H    0.969
                            23 H    0.967
    11   6 C    3.995 --    10 C    1.003    12 C    0.999    26 H    0.977
                            25 H    0.975
    12   6 C    3.989 --     2 N    1.003    11 C    0.999    27 H    0.960
                            28 H    0.947
    13   1 H    0.998 --     5 C    0.971
    14   1 H    0.998 --     5 C    0.964
    15   1 H    0.998 --     6 C    0.976
    16   1 H    0.998 --     6 C    0.976
    17   1 H    0.999 --     7 C    0.976
    18   1 H    0.999 --     7 C    0.977
    19   1 H    0.999 --     8 C    0.975
    20   1 H    0.998 --     8 C    0.976
    21   1 H    0.985 --     9 C    0.910
    22   1 H    0.998 --     9 C    0.960
    23   1 H    0.999 --    10 C    0.967
    24   1 H    0.998 --    10 C    0.969
    25   1 H    0.998 --    11 C    0.975
    26   1 H    0.998 --    11 C    0.977
    27   1 H    0.999 --    12 C    0.960
    28   1 H    0.994 --    12 C    0.947
    29   7 N    3.428 --    30 C    1.630    39 C    1.004     1 Ni   0.446
                            31 N    0.159
    30   6 C    3.967 --    29 N    1.630    31 N    1.212    36 C    0.998
    31   7 N    3.454 --    30 C    1.212    32 C    0.993    37 C    0.989
                            29 N    0.159
    32   6 C    3.976 --    33 C    0.994    31 N    0.993    40 H    0.972
                            41 H    0.964
    33   6 C    3.996 --    34 C    1.009    32 C    0.994    42 H    0.976
                            43 H    0.976
    34   6 C    3.997 --    35 C    1.009    33 C    1.009    45 H    0.976
                            44 H    0.976
    35   6 C    3.995 --    34 C    1.009    36 C    0.989    47 H    0.975
                            46 H    0.973
    36   6 C    3.992 --    30 C    0.998    35 C    0.989    49 H    0.962
                            48 H    0.913
    37   6 C    3.980 --    38 C    1.004    31 N    0.989    51 H    0.969
                            50 H    0.967
    38   6 C    3.995 --    37 C    1.004    39 C    0.998    53 H    0.976
                            52 H    0.976
    39   6 C    3.988 --    29 N    1.004    38 C    0.998    54 H    0.958
                            55 H    0.953
    40   1 H    0.998 --    32 C    0.972
    41   1 H    0.998 --    32 C    0.964
    42   1 H    0.998 --    33 C    0.976
    43   1 H    0.998 --    33 C    0.976
    44   1 H    0.999 --    34 C    0.976
    45   1 H    0.999 --    34 C    0.976
    46   1 H    0.997 --    35 C    0.973
    47   1 H    0.998 --    35 C    0.975
    48   1 H    0.987 --    36 C    0.913
    49   1 H    0.998 --    36 C    0.962
    50   1 H    0.999 --    37 C    0.967
    51   1 H    0.998 --    37 C    0.969
    52   1 H    0.998 --    38 C    0.976
    53   1 H    0.998 --    38 C    0.976
    54   1 H    0.998 --    39 C    0.958
    55   1 H    0.996 --    39 C    0.953
    56   6 C    3.489 --    57 O    2.219     1 Ni   1.163
    57   8 O    2.488 --    56 C    2.219     1 Ni   0.210
    58   6 C    3.507 --    59 O    2.208     1 Ni   1.183
    59   8 O    2.487 --    58 C    2.208     1 Ni   0.219
 ---------------------------------------------------------------------------

Topologies differ in total number of bonds
Writing topology from bond orders to xtbtopo.mol

molecular dipole:
                 x           y           z       tot (Debye)
 q only:       -0.256       2.533       0.858
   full:       -0.443       2.973       0.765       7.882
molecular quadrupole (traceless):
                xx          xy          yy          xz          yz          zz
 q only:       26.025       2.956     -15.093       1.912      -0.406     -10.932
  q+dip:       29.012       5.507     -19.391      -0.629      -2.707      -9.621
   full:       29.660       4.803     -17.929       0.897      -1.543     -11.731

           -------------------------------------------------
          |               Frequency Printout                |
           -------------------------------------------------
 projected vibrational frequencies (cm⁻¹)
eigval :       -0.00    -0.00    -0.00     0.00     0.00     0.00
eigval :       14.79    19.29    24.39    32.65    39.29    41.14
eigval :       47.50    55.71    59.30    69.92    81.56    87.45
eigval :       90.83    96.79    98.43   159.55   170.40   176.51
eigval :      186.65   213.05   229.51   236.65   246.78   249.04
eigval :      265.53   282.09   287.12   318.78   347.29   353.82
eigval :      366.39   367.93   370.32   377.44   417.32   419.86
eigval :      424.16   478.90   483.90   487.05   508.33   511.50
eigval :      512.22   513.84   523.11   598.07   601.04   667.79
eigval :      675.13   734.43   737.02   846.83   848.93   859.88
eigval :      860.47   877.54   879.60   894.09   897.37   905.70
eigval :      907.79   926.66   927.61   952.33   953.03   980.37
eigval :      980.38   995.71   997.69  1024.74  1026.50  1053.60
eigval :     1054.31  1086.44  1088.78  1099.48  1099.76  1112.77
eigval :     1114.23  1127.80  1130.25  1142.46  1142.83  1144.01
eigval :     1145.70  1160.25  1162.07  1190.16  1193.15  1202.01
eigval :     1204.21  1219.04  1219.50  1233.57  1234.10  1243.69
eigval :     1246.23  1257.77  1262.61  1272.20  1276.10  1304.53
eigval :     1306.74  1318.23  1321.08  1328.92  1329.82  1337.38
eigval :     1339.40  1340.44  1341.49  1344.93  1345.77  1354.42
eigval :     1354.54  1361.39  1361.80  1412.66  1414.45  1440.86
eigval :     1445.95  1467.39  1472.98  1474.45  1476.31  1476.81
eigval :     1477.79  1478.49  1479.15  1489.04  1491.31  1491.90
eigval :     1493.81  1499.26  1500.17  1651.09  1659.20  1974.78
eigval :     2002.09  2870.74  2873.58  2894.88  2899.98  2903.53
eigval :     2904.57  2927.02  2927.88  2934.10  2945.49  2955.77
eigval :     2957.93  2958.83  2965.43  2965.92  2966.11  2969.49
eigval :     2971.25  2972.52  2974.22  2975.30  2978.83  2981.80
eigval :     2985.76  2986.25  2986.60  2989.32  2989.91  2990.20
eigval :     2997.98  3000.67  3002.53
 reduced masses (amu)
   1: 15.81   2: 12.71   3: 13.93   4: 12.89   5: 17.20   6: 20.11   7: 12.68   8: 13.11
   9: 13.88  10: 11.78  11: 15.90  12: 15.08  13: 13.65  14:  9.17  15: 15.66  16: 15.65
  17: 11.37  18: 15.84  19: 12.47  20: 10.06  21: 12.52  22: 23.68  23: 32.32  24: 10.95
  25: 16.02  26: 16.73  27: 10.47  28:  8.36  29: 10.93  30:  9.64  31: 13.29  32:  9.11
  33:  8.22  34: 19.77  35: 10.56  36: 10.20  37:  9.50  38:  9.05  39:  7.87  40:  8.44
  41:  9.71  42:  9.72  43: 19.70  44: 10.94  45: 11.10  46: 10.30  47: 11.56  48:  8.60
  49:  5.87  50: 10.29  51: 21.82  52:  9.73  53:  9.60  54:  8.69  55:  8.83  56: 10.05
  57: 10.02  58:  6.63  59:  6.52  60:  5.99  61:  5.90  62:  6.67  63:  6.98  64:  4.33
  65:  4.22  66:  7.24  67:  7.25  68:  6.18  69:  6.05  70:  8.51  71:  8.52  72:  7.32
  73:  7.27  74:  7.64  75:  7.60  76:  7.68  77:  7.52  78:  6.41  79:  6.48  80:  6.07
  81:  6.30  82:  7.20  83:  7.02  84:  6.56  85:  5.99  86:  7.10  87:  7.47  88:  7.81
  89:  7.65  90:  7.22  91:  8.07  92:  3.81  93:  3.83  94:  3.57  95:  3.68  96:  4.38
  97:  4.18  98:  4.21  99:  4.24 100:  3.87 101:  4.06 102:  3.04 103:  3.05 104:  3.99
 105:  3.57 106:  5.51 107:  6.34 108:  4.21 109:  4.19 110:  4.73 111:  4.79 112:  4.77
 113:  4.82 114:  4.49 115:  4.47 116:  6.07 117:  5.95 118:  4.52 119:  4.51 120:  4.91
 121:  4.91 122:  5.04 123:  5.04 124:  8.27 125:  8.43 126:  3.62 127:  2.59 128:  1.95
 129:  1.95 130:  1.94 131:  1.97 132:  2.06 133:  2.03 134:  1.99 135:  2.11 136:  1.96
 137:  2.18 138:  1.97 139:  2.14 140:  1.96 141:  1.97 142: 12.26 143: 12.30 144: 13.64
 145: 13.64 146:  1.80 147:  1.84 148:  1.79 149:  1.79 150:  1.75 151:  1.75 152:  1.80
 153:  1.80 154:  1.59 155:  1.62 156:  1.85 157:  1.65 158:  1.92 159:  1.88 160:  1.69
 161:  1.71 162:  1.73 163:  1.64 164:  1.65 165:  1.79 166:  1.73 167:  1.82 168:  1.68
 169:  1.78 170:  1.73 171:  1.75 172:  1.72 173:  1.65 174:  1.74 175:  1.57 176:  1.59
 177:  1.60
 IR intensities (km·mol⁻¹)
   1:  0.19   2:  0.49   3:  0.16   4:  0.28   5:  0.42   6:  0.52   7:  0.72   8:  1.18
   9:  0.32  10:  0.24  11:  0.24  12:  0.10  13:  0.07  14:  0.05  15:  0.73  16:  0.72
  17:  1.01  18:  2.26  19:  0.85  20:  0.08  21:  0.94  22:  0.56  23:  0.38  24:  1.44
  25:  1.34  26:  2.53  27:  0.39  28:  1.25  29:  1.56  30:  2.54  31:  1.60  32:  2.28
  33:  1.40  34:  1.35  35:  0.92  36:  1.01  37:  3.73  38:  0.32  39:  4.58  40:  7.51
  41:  4.35  42:  9.45  43: 12.06  44:  1.23  45:  4.64  46:  1.48  47:  0.22  48:  0.63
  49:  1.29  50:  4.76  51:  6.30  52:  7.32  53:  8.52  54:  5.35  55:  6.48  56:  1.48
  57:  0.27  58:  1.09  59:  0.22  60:  7.89  61:  6.90  62:  3.04  63:  3.88  64:  0.42
  65:  0.47  66:  1.08  67:  1.28  68:  5.86  69:  7.65  70:  1.12  71:  0.71  72:  5.61
  73: 12.53  74:  4.70  75:  4.86  76: 33.35  77: 10.62  78: 10.45  79:  7.15  80:  7.96
  81:  8.14  82:  4.61  83: 11.97  84:  3.86  85:  1.98  86: 21.90  87:  9.84  88:  1.89
  89:  2.73  90:  3.74  91:  0.58  92:  5.38  93:  6.75  94: 13.28  95:  9.39  96:  4.95
  97:  6.30  98:  8.38  99:  4.39 100:  8.71 101:  6.15 102:  8.97 103:  5.54 104:  4.00
 105:  2.64 106: 15.74 107: 18.05 108: 28.68 109: 28.34 110:  7.01 111: 13.29 112:  5.99
 113:  4.97 114:  8.52 115: 17.67 116: 33.89 117: 31.23 118:  9.14 119: 25.07 120:  0.61
 121:  0.90 122: 16.55 123:  8.38 124:153.51 125: 50.49 126: 28.46 127: 14.75 128:  6.30
 129:  7.70 130:  2.67 131:  0.72 132:  0.40 133:  1.18 134:  1.17 135:  3.03 136:  5.02
 137:  1.86 138:  5.19 139:  2.48 140:  0.43 141:  0.27 142:756.15 143:330.37 144:******
 145:740.03 146: 35.23 147: 32.15 148: 32.50 149: 31.69 150:  1.81 151:  1.86 152: 14.76
 153: 17.83 154: 59.70 155: 53.30 156: 17.75 157: 11.02 158: 17.94 159:  4.67 160: 25.32
 161:  7.86 162: 19.58 163: 19.33 164: 15.52 165: 45.48 166: 49.35 167: 38.65 168: 96.44
 169: 89.98 170: 40.86 171: 63.71 172: 12.35 173: 15.37 174:135.08 175: 46.63 176: 36.71
 177: 48.26
 Raman intensities (amu)
   1:  0.00   2:  0.00   3:  0.00   4:  0.00   5:  0.00   6:  0.00   7:  0.00   8:  0.00
   9:  0.00  10:  0.00  11:  0.00  12:  0.00  13:  0.00  14:  0.00  15:  0.00  16:  0.00
  17:  0.00  18:  0.00  19:  0.00  20:  0.00  21:  0.00  22:  0.00  23:  0.00  24:  0.00
  25:  0.00  26:  0.00  27:  0.00  28:  0.00  29:  0.00  30:  0.00  31:  0.00  32:  0.00
  33:  0.00  34:  0.00  35:  0.00  36:  0.00  37:  0.00  38:  0.00  39:  0.00  40:  0.00
  41:  0.00  42:  0.00  43:  0.00  44:  0.00  45:  0.00  46:  0.00  47:  0.00  48:  0.00
  49:  0.00  50:  0.00  51:  0.00  52:  0.00  53:  0.00  54:  0.00  55:  0.00  56:  0.00
  57:  0.00  58:  0.00  59:  0.00  60:  0.00  61:  0.00  62:  0.00  63:  0.00  64:  0.00
  65:  0.00  66:  0.00  67:  0.00  68:  0.00  69:  0.00  70:  0.00  71:  0.00  72:  0.00
  73:  0.00  74:  0.00  75:  0.00  76:  0.00  77:  0.00  78:  0.00  79:  0.00  80:  0.00
  81:  0.00  82:  0.00  83:  0.00  84:  0.00  85:  0.00  86:  0.00  87:  0.00  88:  0.00
  89:  0.00  90:  0.00  91:  0.00  92:  0.00  93:  0.00  94:  0.00  95:  0.00  96:  0.00
  97:  0.00  98:  0.00  99:  0.00 100:  0.00 101:  0.00 102:  0.00 103:  0.00 104:  0.00
 105:  0.00 106:  0.00 107:  0.00 108:  0.00 109:  0.00 110:  0.00 111:  0.00 112:  0.00
 113:  0.00 114:  0.00 115:  0.00 116:  0.00 117:  0.00 118:  0.00 119:  0.00 120:  0.00
 121:  0.00 122:  0.00 123:  0.00 124:  0.00 125:  0.00 126:  0.00 127:  0.00 128:  0.00
 129:  0.00 130:  0.00 131:  0.00 132:  0.00 133:  0.00 134:  0.00 135:  0.00 136:  0.00
 137:  0.00 138:  0.00 139:  0.00 140:  0.00 141:  0.00 142:  0.00 143:  0.00 144:  0.00
 145:  0.00 146:  0.00 147:  0.00 148:  0.00 149:  0.00 150:  0.00 151:  0.00 152:  0.00
 153:  0.00 154:  0.00 155:  0.00 156:  0.00 157:  0.00 158:  0.00 159:  0.00 160:  0.00
 161:  0.00 162:  0.00 163:  0.00 164:  0.00 165:  0.00 166:  0.00 167:  0.00 168:  0.00
 169:  0.00 170:  0.00 171:  0.00 172:  0.00 173:  0.00 174:  0.00 175:  0.00 176:  0.00
 177:  0.00
 output can be read by thermo (or use thermo option).
 writing <g98.out> molden fake output.
 recommended (thermochemical) frequency scaling factor: 1.0
           -------------------------------------------------
          |             Thermodynamic Functions             |
Molecule has no symmetry elements
It seems to be the C1 point group
           -------------------------------------------------

c1  symmetry found (for desy threshold:  0.10E+00) used in thermo

          ...................................................
          :                      SETUP                      :
          :.................................................:
          :  # frequencies                         171      :
          :  # imaginary freq.                       0      :
          :  linear?                             false      :
          :  only rotor calc.                    false      :
          :  symmetry                               c1      :
          :  rotational number                       1      :
          :  scaling factor                  1.0000000      :
          :  rotor cutoff                   50.0000000 cm⁻¹ :
          :  imag. cutoff                  -20.0000000 cm⁻¹ :
          :.................................................:

    mode    ω/cm⁻¹     T·S(HO)/kcal·mol⁻¹    T·S(FR)/kcal·mol⁻¹   T·S(vib)
   ------------------------------------------------------------------------
       1     14.79    -2.15685 (  0.76%)    -1.41739 ( 99.24%)    -1.42300
       2     19.29    -1.99942 (  2.17%)    -1.33865 ( 97.83%)    -1.35297
       3     24.39    -1.86059 (  5.36%)    -1.26919 ( 94.64%)    -1.30086
       4     32.65    -1.68802 ( 15.38%)    -1.18278 ( 84.62%)    -1.26049
       5     39.29    -1.57861 ( 27.60%)    -1.12794 ( 72.40%)    -1.25232
       6     41.14    -1.55142 ( 31.43%)    -1.11431 ( 68.57%)    -1.25167
       7     47.50    -1.46659 ( 44.88%)    -1.07174 ( 55.12%)    -1.24896
       8     55.71    -1.37257 ( 60.65%)    -1.02449 ( 39.35%)    -1.23560
       9     59.30    -1.33578 ( 66.43%)    -1.00598 ( 33.57%)    -1.22507
      10     69.92    -1.23900 ( 79.27%)    -0.95720 ( 20.73%)    -1.18058
      11     81.56    -1.14880 ( 87.62%)    -0.91160 ( 12.38%)    -1.11944
      12     87.45    -1.10801 ( 90.35%)    -0.89092 (  9.65%)    -1.08705
      13     90.83    -1.08591 ( 91.59%)    -0.87970 (  8.41%)    -1.06857
      14     96.79    -1.04889 ( 93.35%)    -0.86087 (  6.65%)    -1.03639
      15     98.43    -1.03913 ( 93.76%)    -0.85590 (  6.24%)    -1.02769
      16    159.55    -0.76180 ( 99.04%)    -0.71280 (  0.96%)    -0.76133
      17    170.40    -0.72483 ( 99.26%)    -0.69332 (  0.74%)    -0.72460
      18    176.51    -0.70512 ( 99.36%)    -0.68287 (  0.64%)    -0.70498
      19    186.65    -0.67408 ( 99.49%)    -0.66634 (  0.51%)    -0.67404
      20    213.05    -0.60148 ( 99.70%)    -0.62714 (  0.30%)    -0.60156
      21    229.51    -0.56134 ( 99.78%)    -0.60509 (  0.22%)    -0.56144
      22    236.65    -0.54501 ( 99.80%)    -0.59602 (  0.20%)    -0.54511
      23    246.78    -0.52280 ( 99.83%)    -0.58360 (  0.17%)    -0.52290
      24    249.04    -0.51800 ( 99.84%)    -0.58090 (  0.16%)    -0.51810
      25    265.53    -0.48452 ( 99.87%)    -0.56190 (  0.13%)    -0.48462
      26    282.09    -0.45347 ( 99.90%)    -0.54398 (  0.10%)    -0.45356
      27    287.12    -0.44451 ( 99.91%)    -0.53875 (  0.09%)    -0.44460
   ------------------------------------------------------------------------

   temp. (K)  partition function   enthalpy   heat capacity  entropy
                                   cal/mol     cal/K/mol   cal/K/mol   J/K/mol
 298.15  VIB  0.695E+14            16537.435    101.619    106.703
         ROT  0.149E+08              888.752      2.981     35.807
         INT  0.104E+22            17426.187    104.600    142.511
         TR   0.830E+28             1481.254      4.968     43.970
         TOT                       18907.4410   109.5678   186.4806   780.2347

       T/K    H(0)-H(T)+PV         H(T)/Eh          T*S/Eh         G(T)/Eh
   ------------------------------------------------------------------------
    298.15    0.301309E-01    0.528560E+00    0.886029E-01    0.439957E+00
   ------------------------------------------------------------------------

         :::::::::::::::::::::::::::::::::::::::::::::::::::::
         ::                  THERMODYNAMIC                  ::
         :::::::::::::::::::::::::::::::::::::::::::::::::::::
         :: total free energy         -83.431831692453 Eh   ::
         ::.................................................::
         :: total energy              -83.871788687584 Eh   ::
         :: zero point energy           0.498429006366 Eh   ::
         :: G(RRHO) w/o ZPVE           -0.058472011235 Eh   ::
         :: G(RRHO) contrib.            0.439956995131 Eh   ::
         :::::::::::::::::::::::::::::::::::::::::::::::::::::

           -------------------------------------------------
          | TOTAL ENERGY              -83.871788687584 Eh   |
          | TOTAL ENTHALPY            -83.343228756146 Eh   |
          | TOTAL FREE ENERGY         -83.431831692453 Eh   |
          | GRADIENT NORM               0.000119216483 Eh/α |
          | HOMO-LUMO GAP               2.339712808822 eV   |
           -------------------------------------------------

------------------------------------------------------------------------
 * finished run on 2022/05/27 at 18:14:50.979     
------------------------------------------------------------------------
 total:
 * wall-time:     0 d,  0 h,  2 min, 46.822 sec
 *  cpu-time:     0 d,  0 h,  0 min, 22.458 sec
 * ratio c/w:     0.135 speedup
 SCF:
 * wall-time:     0 d,  0 h,  0 min,  1.035 sec
 *  cpu-time:     0 d,  0 h,  0 min,  0.100 sec
 * ratio c/w:     0.097 speedup
 analytical hessian:
 * wall-time:     0 d,  0 h,  2 min, 45.509 sec
 *  cpu-time:     0 d,  0 h,  0 min, 22.326 sec
 * ratio c/w:     0.135 speedup

