 Entering Gaussian System
 *********************************************
 Gaussian 98:
 frequency output generated by the xtb code
 *********************************************
                         Standard orientation:
 --------------------------------------------------------------------
  Center     Atomic     Atomic              Coordinates (Angstroms)
  Number     Number      Type              X           Y           Z
 --------------------------------------------------------------------
    1         28             0       -0.004203   -0.908145   -0.512846
    2          7             0       -1.593512    0.535969   -0.249777
    3          6             0       -2.850433    0.263950   -0.225281
    4          7             0       -3.848355    1.181805   -0.290945
    5          6             0       -5.230731    0.828645   -0.056280
    6          6             0       -5.492801    0.326459    1.368450
    7          6             0       -5.209160   -1.163901    1.532787
    8          6             0       -3.746274   -1.530177    1.301312
    9          6             0       -3.243984   -1.180526   -0.102053
   10          6             0       -3.551531    2.588220   -0.469379
   11          6             0       -2.197936    2.740398   -1.144504
   12          6             0       -1.188129    1.927220   -0.344148
   13          1             0       -5.825458    1.727582   -0.234397
   14          1             0       -5.557575    0.070503   -0.776745
   15          1             0       -6.539910    0.513577    1.616200
   16          1             0       -4.877253    0.899537    2.065300
   17          1             0       -5.834155   -1.722658    0.831048
   18          1             0       -5.496203   -1.469426    2.541806
   19          1             0       -3.113884   -1.027483    2.036095
   20          1             0       -3.632107   -2.605158    1.453103
   21          1             0       -2.331317   -1.756237   -0.307077
   22          1             0       -3.991143   -1.446142   -0.851453
   23          1             0       -3.551445    3.106200    0.501121
   24          1             0       -4.337314    3.035229   -1.088459
   25          1             0       -1.911300    3.790988   -1.190728
   26          1             0       -2.249453    2.344412   -2.160611
   27          1             0       -1.098262    2.342655    0.668490
   28          1             0       -0.200658    1.963200   -0.810597
   29          7             0        1.595945    0.055751    0.579264
   30          6             0        2.851106   -0.075823    0.330665
   31          7             0        3.854790    0.335314    1.146795
   32          6             0        5.235911    0.342612    0.718669
   33          6             0        5.500773    1.297919   -0.450919
   34          6             0        5.209182    0.666582   -1.809215
   35          6             0        3.742938    0.289599   -1.998360
   36          6             0        3.235416   -0.723671   -0.969023
   37          6             0        3.567560    0.910240    2.444877
   38          6             0        2.209379    0.426144    2.926614
   39          6             0        1.200609    0.701563    1.818367
   40          1             0        5.835613    0.652841    1.577509
   41          1             0        5.554793   -0.669009    0.443570
   42          1             0        6.549920    1.600115   -0.422640
   43          1             0        4.891313    2.194942   -0.321109
   44          1             0        5.827282   -0.227889   -1.923842
   45          1             0        5.499515    1.368086   -2.594982
   46          1             0        3.117361    1.183335   -1.949439
   47          1             0        3.623241   -0.138706   -2.995295
   48          1             0        2.317624   -1.190189   -1.351748
   49          1             0        3.976548   -1.508207   -0.809015
   50          1             0        3.580570    2.008806    2.388816
   51          1             0        4.351400    0.600508    3.145077
   52          1             0        1.930006    0.933145    3.850168
   53          1             0        2.249091   -0.648828    3.113191
   54          1             0        1.124085    1.783967    1.648725
   55          1             0        0.209104    0.333631    2.093016
   56          6             0       -0.205580   -0.795642   -2.274048
   57          8             0       -0.797939   -0.648873   -3.251137
   58          6             0        0.191026   -2.355888    0.497463
   59          8             0        0.779402   -3.118391    1.129492
 --------------------------------------------------------------------
     1 basis functions        1 primitive gaussians
     1 alpha electrons        1 beta electrons

 Harmonic frequencies (cm**-1), IR intensities (km*mol⁻¹),
 Raman scattering activities (A**4/amu), Raman depolarization ratios,
 reduced masses (AMU), force constants (mDyne/A) and normal coordinates:
                      1                      2                      3
                        a                      a                      a 
 Frequencies --    11.7989                12.7822                23.8979
 Red. masses --    12.7449                13.8322                12.4174
 Frc consts  --     0.0000                 0.0000                 0.0000
 IR Inten    --     0.7528                 1.0707                 0.2334
 Raman Activ --     0.0000                 0.0000                 0.0000
 Depolar     --     0.0000                 0.0000                 0.0000
 Atom AN      X      Y      Z        X      Y      Z        X      Y      Z
   1  28     0.00   0.17   0.12    -0.01   0.14  -0.22     0.00  -0.09  -0.06
   2   7    -0.05   0.04   0.07    -0.05   0.03  -0.09     0.02  -0.00  -0.11
   3   6    -0.04  -0.00  -0.00    -0.03  -0.01   0.00     0.01   0.02  -0.06
   4   7    -0.06  -0.03   0.01    -0.07  -0.04   0.06     0.03   0.05   0.05
   5   6    -0.06  -0.09  -0.09    -0.03  -0.07   0.18     0.04   0.07   0.17
   6   6    -0.13  -0.19  -0.14     0.11  -0.05   0.22     0.18  -0.03   0.16
   7   6    -0.09  -0.19  -0.22     0.16  -0.05   0.21     0.13  -0.05   0.01
   8   6    -0.06  -0.13  -0.16     0.14  -0.02   0.09     0.10  -0.10  -0.15
   9   6     0.00  -0.02  -0.11     0.01  -0.02   0.05    -0.02   0.02  -0.16
  10   6    -0.09  -0.01   0.14    -0.12  -0.04  -0.01     0.04   0.05   0.11
  11   6    -0.07   0.08   0.19    -0.16  -0.02  -0.10     0.01   0.06   0.05
  12   6    -0.07   0.05   0.16    -0.09   0.04  -0.13     0.04  -0.00  -0.04
  13   1    -0.02  -0.03  -0.02    -0.02  -0.03   0.07     0.01   0.03   0.09
  14   1     0.00  -0.01  -0.05    -0.02  -0.03   0.07    -0.02   0.04   0.04
  15   1    -0.04  -0.07  -0.05     0.04  -0.02   0.09     0.06  -0.00   0.08
  16   1    -0.05  -0.06  -0.02     0.05  -0.01   0.04     0.08  -0.03   0.04
  17   1    -0.01  -0.05  -0.08     0.03  -0.02   0.08     0.01   0.01   0.01
  18   1    -0.04  -0.08  -0.07     0.07  -0.01   0.07     0.06  -0.04   0.00
  19   1    -0.04  -0.04  -0.03     0.06  -0.00   0.01     0.05  -0.06  -0.05
  20   1    -0.01  -0.04  -0.07     0.05  -0.00   0.03     0.02  -0.03  -0.08
  21   1     0.01   0.00  -0.03     0.00   0.00  -0.01    -0.01   0.00  -0.08
  22   1     0.01   0.00  -0.05    -0.01  -0.01   0.03    -0.03   0.03  -0.04
  23   1    -0.04  -0.02   0.05    -0.02  -0.00  -0.01     0.03   0.00   0.04
  24   1    -0.02   0.01   0.04    -0.05  -0.02   0.00     0.01   0.03   0.05
  25   1    -0.03   0.03   0.08    -0.06  -0.00  -0.04     0.01   0.02   0.03
  26   1    -0.01   0.04   0.05    -0.06  -0.01  -0.02    -0.01   0.03   0.01
  27   1    -0.03  -0.00   0.06    -0.02   0.02  -0.04     0.02  -0.02  -0.01
  28   1    -0.02   0.03   0.05    -0.03   0.02  -0.05     0.00   0.00  -0.02
  29   7     0.05   0.07   0.01    -0.04   0.08  -0.07    -0.02  -0.09   0.05
  30   6     0.04  -0.00  -0.00    -0.03   0.00   0.01    -0.01  -0.04   0.05
  31   7     0.08   0.00  -0.04    -0.06  -0.03   0.06    -0.03   0.07   0.02
  32   6     0.07  -0.10  -0.05    -0.02  -0.14   0.15    -0.04   0.17  -0.02
  33   6     0.11  -0.19  -0.12     0.13  -0.19   0.14    -0.17   0.12  -0.10
  34   6     0.06  -0.25  -0.07     0.17  -0.21   0.14    -0.13  -0.02  -0.05
  35   6     0.04  -0.19  -0.03     0.15  -0.10   0.06    -0.09  -0.17  -0.00
  36   6    -0.00  -0.10   0.03     0.01  -0.05   0.05     0.02  -0.12   0.10
  37   6     0.11   0.11  -0.08    -0.10   0.05   0.01    -0.04   0.12  -0.01
  38   6     0.10   0.19  -0.02    -0.15   0.13  -0.04    -0.02   0.07   0.02
  39   6     0.09   0.15  -0.02    -0.08   0.13  -0.11    -0.04  -0.03   0.01
  40   1     0.03  -0.02  -0.02    -0.02  -0.05   0.05    -0.01   0.09  -0.02
  41   1     0.00  -0.04   0.00    -0.02  -0.05   0.06     0.02   0.05   0.01
  42   1     0.04  -0.07  -0.04     0.04  -0.08   0.06    -0.06   0.07  -0.04
  43   1     0.05  -0.04  -0.05     0.06  -0.04   0.02    -0.08   0.02  -0.04
  44   1     0.00  -0.09  -0.01     0.03  -0.07   0.06    -0.01   0.01   0.00
  45   1     0.03  -0.09  -0.03     0.08  -0.07   0.04    -0.06  -0.01  -0.03
  46   1     0.02  -0.04  -0.02     0.06  -0.02   0.00    -0.05  -0.07  -0.02
  47   1     0.00  -0.07  -0.00     0.05  -0.03   0.02    -0.02  -0.08   0.01
  48   1    -0.01  -0.02   0.02     0.00   0.00  -0.00     0.01  -0.07   0.05
  49   1    -0.01  -0.04   0.02    -0.02  -0.03   0.03     0.03  -0.01   0.05
  50   1     0.04   0.03  -0.05    -0.02   0.01  -0.01    -0.03   0.03  -0.02
  51   1     0.03   0.04  -0.02    -0.04   0.02   0.02    -0.01   0.05  -0.00
  52   1     0.04   0.07  -0.01    -0.05   0.05  -0.02    -0.01   0.03  -0.00
  53   1     0.02   0.06   0.01    -0.06   0.04   0.00     0.01   0.02   0.02
  54   1     0.03   0.04  -0.02    -0.01   0.04  -0.04    -0.02  -0.01  -0.01
  55   1     0.03   0.05   0.00    -0.03   0.05  -0.04    -0.01  -0.02   0.01
  56   6     0.00   0.11   0.06     0.02   0.09  -0.10     0.18   0.01  -0.04
  57   8     0.01   0.17   0.07     0.05   0.12  -0.13     0.37   0.09  -0.14
  58   6    -0.00   0.10   0.08     0.02   0.05  -0.12    -0.18  -0.03   0.03
  59   8    -0.02   0.14   0.15     0.05   0.07  -0.16    -0.39  -0.06   0.16
                      4                      5                      6
                        a                      a                      a 
 Frequencies --    26.2368                37.9212                50.1503
 Red. masses --    13.6366                13.5699                12.7352
 Frc consts  --     0.0000                 0.0000                 0.0000
 IR Inten    --     0.0869                 0.8069                 0.1333
 Raman Activ --     0.0000                 0.0000                 0.0000
 Depolar     --     0.0000                 0.0000                 0.0000
 Atom AN      X      Y      Z        X      Y      Z        X      Y      Z
   1  28     0.06  -0.05   0.08     0.00  -0.01  -0.01     0.04  -0.04   0.08
   2   7     0.01  -0.04   0.09    -0.02  -0.04   0.01     0.01  -0.02  -0.02
   3   6     0.01  -0.04   0.05    -0.01  -0.06  -0.01     0.01  -0.02  -0.07
   4   7     0.01  -0.05  -0.05    -0.03  -0.09  -0.09     0.03  -0.00  -0.07
   5   6    -0.00  -0.03  -0.08    -0.02  -0.08  -0.03     0.04   0.03   0.07
   6   6    -0.06   0.06  -0.06     0.02   0.00   0.00     0.19  -0.02   0.09
   7   6    -0.06   0.07   0.05     0.04   0.02   0.09     0.11  -0.05  -0.02
   8   6    -0.05   0.06   0.13     0.03   0.01   0.08     0.07  -0.13  -0.16
   9   6     0.01  -0.03   0.13     0.01  -0.06   0.06    -0.01  -0.02  -0.16
  10   6     0.00  -0.06  -0.17    -0.05  -0.09  -0.21     0.02  -0.01  -0.17
  11   6     0.05  -0.10  -0.09    -0.02  -0.11  -0.15     0.07  -0.05  -0.08
  12   6    -0.00  -0.03   0.04    -0.05  -0.03  -0.03     0.01  -0.02   0.04
  13   1     0.00  -0.01  -0.05    -0.01  -0.03  -0.02     0.02   0.02   0.05
  14   1     0.01  -0.02  -0.01    -0.01  -0.04   0.01    -0.02   0.02   0.02
  15   1    -0.02   0.02  -0.04     0.01   0.00   0.01     0.07   0.01   0.07
  16   1    -0.03   0.03  -0.02     0.01   0.01  -0.01     0.09  -0.03   0.01
  17   1    -0.01   0.01   0.02     0.01  -0.01   0.04     0.01   0.01   0.00
  18   1    -0.03   0.04   0.02     0.02   0.02   0.03     0.05  -0.02  -0.00
  19   1    -0.02   0.03   0.04     0.01   0.01   0.01     0.05  -0.07  -0.05
  20   1    -0.01   0.02   0.06     0.01   0.00   0.04     0.00  -0.04  -0.08
  21   1     0.00  -0.01   0.06     0.00  -0.02   0.02    -0.01  -0.01  -0.08
  22   1     0.01  -0.02   0.03    -0.00  -0.03   0.02    -0.02   0.02  -0.04
  23   1    -0.02   0.01  -0.06    -0.04   0.00  -0.08    -0.02   0.02  -0.06
  24   1     0.01  -0.04  -0.08    -0.01  -0.05  -0.09     0.02  -0.03  -0.08
  25   1     0.01  -0.03  -0.04    -0.01  -0.03  -0.06     0.02  -0.01  -0.03
  26   1     0.03  -0.05  -0.02     0.01  -0.06  -0.03     0.04  -0.03  -0.02
  27   1    -0.03   0.01   0.01    -0.04   0.01  -0.01    -0.03  -0.00   0.01
  28   1     0.01  -0.01   0.04    -0.00  -0.01   0.01     0.02   0.00   0.04
  29   7     0.01  -0.06   0.08     0.02  -0.02  -0.04     0.01   0.03   0.02
  30   6     0.01  -0.02   0.06     0.01  -0.04  -0.04     0.00   0.06  -0.01
  31   7     0.01   0.07   0.02     0.03  -0.12  -0.02     0.02   0.06  -0.02
  32   6     0.00   0.10  -0.02     0.02  -0.07  -0.05     0.03  -0.08   0.01
  33   6    -0.06   0.03  -0.09    -0.02   0.00   0.00     0.17  -0.06   0.06
  34   6    -0.06  -0.08  -0.04    -0.03   0.08  -0.03     0.10   0.03   0.03
  35   6    -0.05  -0.15   0.02    -0.03   0.07  -0.03     0.06   0.18   0.03
  36   6     0.01  -0.10   0.10    -0.01   0.02  -0.08    -0.02   0.14  -0.05
  37   6     0.00   0.18  -0.04     0.05  -0.22   0.03     0.02   0.15  -0.07
  38   6     0.05   0.14   0.04     0.02  -0.18  -0.02     0.06   0.09   0.01
  39   6    -0.00  -0.02   0.05     0.04  -0.05  -0.01    -0.00  -0.02   0.04
  40   1     0.00   0.05  -0.01     0.01  -0.03  -0.01     0.01  -0.05   0.01
  41   1     0.01   0.03   0.01     0.01  -0.01  -0.03    -0.02  -0.03  -0.01
  42   1    -0.02   0.02  -0.04    -0.01   0.00   0.00     0.06  -0.06   0.02
  43   1    -0.03   0.00  -0.04    -0.01  -0.00   0.02     0.09   0.00   0.03
  44   1    -0.01  -0.02   0.00    -0.01   0.03  -0.03     0.00  -0.01  -0.01
  45   1    -0.03  -0.04  -0.03    -0.01   0.04   0.00     0.05   0.01   0.02
  46   1    -0.02  -0.05  -0.01    -0.01   0.02   0.00     0.04   0.07   0.03
  47   1    -0.01  -0.07   0.01    -0.01   0.04  -0.02    -0.00   0.08  -0.00
  48   1     0.00  -0.04   0.04    -0.00   0.01  -0.02    -0.01   0.06  -0.03
  49   1     0.01  -0.02   0.04     0.00   0.01  -0.04    -0.02   0.02  -0.03
  50   1    -0.02   0.05  -0.04     0.03  -0.06   0.04    -0.02   0.04  -0.05
  51   1     0.01   0.09  -0.01     0.01  -0.10   0.00     0.02   0.08  -0.02
  52   1     0.01   0.06   0.00     0.01  -0.07   0.00     0.02   0.03  -0.00
  53   1     0.04   0.04   0.04    -0.01  -0.06  -0.03     0.04   0.03   0.02
  54   1    -0.03  -0.01  -0.00     0.03  -0.01   0.01    -0.03  -0.01   0.01
  55   1     0.01  -0.02   0.03     0.01   0.00  -0.01     0.01  -0.03   0.02
  56   6     0.03   0.21   0.05     0.03   0.17   0.01    -0.14   0.01   0.05
  57   8     0.02   0.48   0.10     0.11   0.53   0.01    -0.45   0.04   0.23
  58   6     0.02  -0.16  -0.15    -0.03   0.09   0.13    -0.12  -0.05   0.01
  59   8     0.00  -0.35  -0.37    -0.13   0.27   0.44    -0.38  -0.20   0.06
                      7                      8                      9
                        a                      a                      a 
 Frequencies --    51.9868                60.4273                64.8132
 Red. masses --    12.8387                18.0588                12.4652
 Frc consts  --     0.0000                 0.0000                 0.0000
 IR Inten    --     0.0365                 0.3019                 0.4586
 Raman Activ --     0.0000                 0.0000                 0.0000
 Depolar     --     0.0000                 0.0000                 0.0000
 Atom AN      X      Y      Z        X      Y      Z        X      Y      Z
   1  28    -0.00  -0.03  -0.02     0.00   0.33   0.18     0.17   0.03  -0.05
   2   7     0.07   0.05  -0.05    -0.06   0.10   0.02     0.05   0.05  -0.09
   3   6     0.07   0.03  -0.07    -0.04   0.03  -0.06     0.06   0.01  -0.01
   4   7     0.07   0.03  -0.06    -0.09  -0.03  -0.15     0.02  -0.03   0.01
   5   6     0.08   0.03   0.02    -0.06  -0.07  -0.01     0.02  -0.11  -0.11
   6   6     0.18  -0.03   0.02     0.09  -0.03   0.03    -0.10  -0.06  -0.11
   7   6     0.16  -0.04  -0.06     0.12  -0.02   0.06     0.04  -0.02   0.00
   8   6     0.14  -0.06  -0.14     0.11  -0.01  -0.04     0.09   0.11   0.11
   9   6     0.08   0.02  -0.14     0.02   0.01  -0.06     0.11   0.01   0.09
  10   6     0.05   0.03  -0.07    -0.17  -0.02  -0.24     0.00  -0.00   0.21
  11   6     0.07   0.04  -0.04    -0.10   0.03  -0.09    -0.10   0.08   0.03
  12   6     0.05   0.05  -0.01    -0.14   0.12   0.05     0.04   0.04  -0.18
  13   1     0.02   0.01   0.03    -0.03  -0.03   0.00    -0.01  -0.05  -0.06
  14   1     0.01   0.02   0.01    -0.03  -0.03   0.01     0.04  -0.05  -0.03
  15   1     0.06  -0.00   0.03     0.03  -0.01   0.04    -0.04  -0.05  -0.07
  16   1     0.07  -0.02  -0.00     0.04   0.00  -0.01    -0.07   0.01  -0.02
  17   1     0.03   0.00  -0.02     0.02  -0.01   0.03     0.04  -0.04   0.00
  18   1     0.06  -0.02  -0.02     0.06   0.00   0.02     0.00   0.01   0.00
  19   1     0.05  -0.04  -0.04     0.04  -0.00  -0.02     0.00   0.07   0.02
  20   1     0.03  -0.02  -0.07     0.04  -0.00  -0.02     0.06   0.04   0.07
  21   1     0.02   0.01  -0.06     0.01   0.01  -0.03     0.04   0.01   0.04
  22   1     0.02   0.02  -0.04    -0.01  -0.00  -0.01     0.04  -0.02   0.03
  23   1     0.01   0.01  -0.02    -0.10   0.02  -0.08     0.05  -0.05   0.09
  24   1     0.02   0.00  -0.03    -0.04  -0.04  -0.11    -0.02   0.03   0.12
  25   1     0.02   0.01  -0.01    -0.05   0.01  -0.03    -0.03   0.02   0.02
  26   1     0.03   0.01  -0.01     0.01  -0.01  -0.02    -0.07   0.04   0.00
  27   1     0.01   0.01  -0.00    -0.08   0.04   0.02     0.08   0.01  -0.06
  28   1     0.02   0.02   0.01    -0.02   0.05   0.05    -0.01   0.01  -0.11
  29   7    -0.07  -0.02   0.06     0.06   0.07   0.08     0.06   0.05  -0.09
  30   6    -0.07  -0.05   0.07     0.04  -0.04   0.05     0.06   0.00  -0.01
  31   7    -0.07  -0.04   0.06     0.09  -0.14   0.05     0.02   0.01   0.03
  32   6    -0.08   0.05   0.01     0.06  -0.04  -0.05     0.02   0.15   0.04
  33   6    -0.21   0.02  -0.04    -0.09   0.01  -0.04    -0.09   0.13  -0.00
  34   6    -0.17  -0.08  -0.01    -0.12   0.04  -0.05     0.05   0.01   0.02
  35   6    -0.15  -0.18   0.02    -0.11  -0.04   0.01     0.09  -0.15  -0.04
  36   6    -0.08  -0.13   0.10    -0.02  -0.05   0.04     0.11  -0.08   0.04
  37   6    -0.06  -0.06   0.07     0.17  -0.22   0.11     0.00  -0.18   0.11
  38   6    -0.08  -0.02   0.05     0.10  -0.07   0.07    -0.10  -0.06  -0.05
  39   6    -0.05   0.02   0.04     0.14   0.11   0.07     0.04   0.13  -0.13
  40   1    -0.02   0.04  -0.01     0.03  -0.01  -0.02    -0.01   0.08   0.01
  41   1    -0.00   0.02   0.01     0.03  -0.01  -0.03     0.05   0.05   0.03
  42   1    -0.07   0.04  -0.02    -0.03   0.03  -0.03    -0.04   0.08   0.00
  43   1    -0.09  -0.01  -0.02    -0.04  -0.01   0.01    -0.07   0.01  -0.02
  44   1    -0.03  -0.01   0.01    -0.02   0.02  -0.03     0.04   0.02   0.03
  45   1    -0.06  -0.03  -0.01    -0.06   0.02  -0.01     0.01  -0.01  -0.00
  46   1    -0.06  -0.06  -0.02    -0.05  -0.02   0.01     0.00  -0.06  -0.05
  47   1    -0.03  -0.08   0.02    -0.04  -0.02   0.01     0.06  -0.08   0.00
  48   1    -0.02  -0.05   0.04    -0.01  -0.02   0.03     0.04  -0.04   0.02
  49   1    -0.02  -0.03   0.04     0.01  -0.01   0.00     0.04  -0.01   0.03
  50   1    -0.00  -0.02   0.03     0.10  -0.06   0.06     0.05  -0.05   0.09
  51   1    -0.02  -0.03   0.02     0.04  -0.12   0.02    -0.02  -0.12   0.03
  52   1    -0.02  -0.00   0.02     0.05  -0.02   0.03    -0.04  -0.03  -0.01
  53   1    -0.03  -0.01   0.01    -0.01  -0.02   0.01    -0.07  -0.02  -0.04
  54   1    -0.00   0.01   0.01     0.09   0.03   0.03     0.08   0.04  -0.04
  55   1    -0.02   0.02   0.01     0.03   0.07   0.02    -0.01   0.09  -0.06
  56   6    -0.14   0.02   0.00     0.07   0.00   0.07    -0.08   0.02  -0.00
  57   8    -0.38   0.13   0.16     0.11  -0.29   0.01    -0.36   0.03   0.16
  58   6     0.15   0.02   0.01    -0.06   0.06  -0.03    -0.08  -0.01  -0.02
  59   8     0.44   0.22   0.02    -0.11  -0.14  -0.25    -0.35  -0.15   0.05
                     10                     11                     12
                        a                      a                      a 
 Frequencies --    69.7979                75.6704                83.7148
 Red. masses --     9.0254                21.8115                11.6694
 Frc consts  --     0.0000                 0.0000                 0.0000
 IR Inten    --     0.0468                 1.7982                 1.1271
 Raman Activ --     0.0000                 0.0000                 0.0000
 Depolar     --     0.0000                 0.0000                 0.0000
 Atom AN      X      Y      Z        X      Y      Z        X      Y      Z
   1  28    -0.00   0.01   0.01     0.09   0.23  -0.40    -0.14  -0.06   0.11
   2   7    -0.03  -0.08   0.17     0.04  -0.01   0.15    -0.04   0.02   0.02
   3   6    -0.04  -0.02   0.10     0.03  -0.03   0.08    -0.03  -0.02  -0.13
   4   7     0.01   0.04   0.11     0.03  -0.04   0.03    -0.07  -0.07  -0.29
   5   6    -0.01   0.14   0.15     0.02  -0.05  -0.04    -0.04  -0.09  -0.14
   6   6     0.03   0.04   0.12    -0.04  -0.01  -0.03     0.10   0.09  -0.05
   7   6    -0.14  -0.01  -0.05    -0.01   0.01   0.04     0.17   0.12   0.13
   8   6    -0.18  -0.14  -0.08     0.01   0.03   0.11     0.14   0.10   0.00
   9   6    -0.12  -0.01  -0.02     0.04  -0.02   0.10     0.00  -0.02  -0.08
  10   6     0.04  -0.00  -0.20    -0.02  -0.05  -0.12    -0.08  -0.02   0.04
  11   6     0.14  -0.13  -0.02     0.08  -0.04   0.07    -0.02   0.13   0.21
  12   6    -0.02  -0.07   0.24    -0.02   0.02   0.25    -0.06   0.03   0.17
  13   1     0.02   0.06   0.08     0.00  -0.02  -0.03    -0.03  -0.04  -0.07
  14   1    -0.04   0.07   0.03     0.02  -0.02  -0.01    -0.01  -0.06  -0.00
  15   1     0.02   0.04   0.06    -0.02  -0.01  -0.03     0.04   0.03   0.01
  16   1     0.04  -0.03   0.04    -0.03   0.01  -0.01     0.04   0.06  -0.05
  17   1    -0.06   0.04  -0.03     0.01  -0.01   0.01     0.03   0.00   0.08
  18   1    -0.05  -0.03  -0.02    -0.01   0.01   0.01     0.09   0.08   0.06
  19   1    -0.04  -0.09  -0.00    -0.01   0.02   0.03     0.07   0.05  -0.03
  20   1    -0.09  -0.05  -0.06     0.01   0.01   0.05     0.04   0.03   0.03
  21   1    -0.04  -0.01  -0.01     0.01  -0.01   0.04    -0.00  -0.01  -0.03
  22   1    -0.03   0.03  -0.02     0.01  -0.01   0.03    -0.02  -0.02   0.00
  23   1    -0.04   0.07  -0.09    -0.06   0.02  -0.05    -0.06  -0.06   0.04
  24   1     0.04  -0.05  -0.12     0.02  -0.05  -0.09    -0.01   0.02   0.01
  25   1     0.05  -0.04  -0.03     0.01  -0.01   0.02    -0.01   0.04   0.12
  26   1     0.08  -0.07   0.01     0.07  -0.02   0.02     0.03   0.09   0.04
  27   1    -0.08  -0.01   0.07    -0.07   0.00   0.08    -0.03  -0.02   0.06
  28   1     0.03  -0.02   0.13     0.02   0.02   0.12    -0.01   0.03   0.06
  29   7     0.03   0.10  -0.15     0.04  -0.13   0.09    -0.05  -0.03  -0.00
  30   6     0.04   0.07  -0.07     0.04  -0.05   0.06    -0.03   0.12  -0.05
  31   7    -0.01   0.12  -0.03     0.03  -0.00   0.05    -0.07   0.29  -0.09
  32   6     0.01   0.20   0.04     0.02   0.06   0.03    -0.04   0.17   0.01
  33   6    -0.03   0.12  -0.03    -0.04   0.03  -0.01     0.11  -0.01  -0.11
  34   6     0.15  -0.05   0.01    -0.00  -0.04   0.02     0.17  -0.18  -0.04
  35   6     0.18  -0.14  -0.09     0.01  -0.11   0.03     0.14  -0.05  -0.08
  36   6     0.12  -0.02  -0.00     0.04  -0.08   0.07    -0.00   0.08  -0.02
  37   6    -0.04  -0.17   0.10    -0.01   0.13  -0.02    -0.08  -0.02   0.04
  38   6    -0.14  -0.08  -0.10     0.08  -0.04   0.07    -0.02  -0.25   0.00
  39   6     0.02   0.16  -0.18    -0.02  -0.22   0.11    -0.06  -0.16   0.06
  40   1    -0.02   0.10   0.01     0.01   0.03   0.00    -0.03   0.08   0.00
  41   1     0.04   0.06   0.04     0.02   0.02   0.01    -0.01   0.03   0.05
  42   1    -0.02   0.07   0.00    -0.02   0.03  -0.01     0.04  -0.02  -0.02
  43   1    -0.04   0.02  -0.05    -0.03   0.00  -0.01     0.04   0.01  -0.08
  44   1     0.06  -0.01   0.05     0.01  -0.00   0.02     0.02  -0.08   0.04
  45   1     0.05  -0.03  -0.01    -0.01  -0.02  -0.00     0.09  -0.09  -0.03
  46   1     0.04  -0.05  -0.08    -0.01  -0.04  -0.00     0.07   0.00  -0.06
  47   1     0.09  -0.08  -0.01     0.01  -0.05   0.02     0.04  -0.04  -0.01
  48   1     0.04  -0.02  -0.00     0.01  -0.03   0.03    -0.00   0.03  -0.01
  49   1     0.03  -0.00   0.04     0.02  -0.02   0.03    -0.02   0.01   0.02
  50   1     0.04  -0.05   0.10    -0.06   0.04  -0.05    -0.06  -0.00   0.07
  51   1    -0.04  -0.13   0.02     0.02   0.10  -0.00    -0.01  -0.02  -0.01
  52   1    -0.05  -0.05  -0.02     0.02  -0.01   0.02    -0.01  -0.12   0.03
  53   1    -0.08  -0.03  -0.07     0.07  -0.01   0.03     0.03  -0.08  -0.05
  54   1     0.08   0.05  -0.05    -0.07  -0.07   0.04    -0.03  -0.04   0.06
  55   1    -0.02   0.10  -0.08     0.02  -0.12   0.04    -0.01  -0.07   0.01
  56   6    -0.03   0.00   0.01    -0.03   0.10  -0.17    -0.02  -0.03   0.05
  57   8    -0.01  -0.03  -0.00    -0.22  -0.24  -0.15     0.06   0.02   0.01
  58   6     0.03   0.01  -0.01    -0.03   0.09  -0.18    -0.03  -0.02   0.05
  59   8     0.01  -0.02  -0.02    -0.21   0.25   0.11     0.06  -0.02  -0.01
                     13                     14                     15
                        a                      a                      a 
 Frequencies --    85.4015                91.8619                98.7354
 Red. masses --    11.1849                10.2863                14.6776
 Frc consts  --     0.0000                 0.0000                 0.0000
 IR Inten    --     0.0390                 0.5068                 1.2546
 Raman Activ --     0.0000                 0.0000                 0.0000
 Depolar     --     0.0000                 0.0000                 0.0000
 Atom AN      X      Y      Z        X      Y      Z        X      Y      Z
   1  28    -0.00  -0.09  -0.05     0.00   0.06   0.03     0.23   0.10  -0.17
   2   7     0.14   0.02   0.19     0.11   0.11   0.01    -0.05  -0.22  -0.10
   3   6     0.13  -0.01   0.06     0.10   0.08   0.13    -0.06  -0.14  -0.08
   4   7     0.13  -0.05  -0.04     0.10   0.07   0.26    -0.01  -0.09  -0.11
   5   6     0.12  -0.09  -0.11     0.07   0.01   0.07    -0.02   0.02  -0.01
   6   6     0.06  -0.03  -0.10    -0.08  -0.18  -0.03     0.03   0.13   0.04
   7   6     0.13  -0.01   0.01    -0.02  -0.18  -0.14    -0.09   0.11   0.08
   8   6     0.15   0.04   0.08     0.04  -0.03   0.04    -0.14  -0.04  -0.02
   9   6     0.16  -0.02   0.08     0.15   0.07   0.11    -0.15  -0.12  -0.04
  10   6     0.08  -0.03  -0.03     0.03   0.04  -0.10     0.11  -0.08   0.15
  11   6     0.17   0.02   0.17    -0.02  -0.05  -0.23     0.06  -0.10   0.06
  12   6     0.08   0.04   0.30     0.05   0.11  -0.15     0.06  -0.24  -0.08
  13   1     0.03  -0.03  -0.05     0.02   0.01   0.04     0.01   0.01  -0.02
  14   1     0.06  -0.04  -0.03     0.04   0.03  -0.02    -0.03  -0.01   0.02
  15   1     0.01  -0.02  -0.05    -0.04  -0.08  -0.05     0.02   0.07   0.03
  16   1    -0.00   0.01  -0.03    -0.06  -0.06   0.04     0.04   0.03  -0.01
  17   1     0.05  -0.02   0.01     0.04  -0.04  -0.08    -0.06   0.04   0.04
  18   1     0.03   0.01   0.01    -0.05  -0.09  -0.06    -0.01   0.05   0.03
  19   1     0.03   0.03   0.02    -0.03   0.00   0.04    -0.01  -0.03  -0.02
  20   1     0.05   0.02   0.05     0.04  -0.01   0.00    -0.07  -0.02  -0.00
  21   1     0.05  -0.00   0.03     0.05   0.03   0.04    -0.06  -0.05  -0.01
  22   1     0.05  -0.02   0.02     0.06   0.02   0.01    -0.05  -0.03  -0.01
  23   1    -0.03  -0.00  -0.01     0.02   0.07  -0.06     0.07  -0.08   0.07
  24   1     0.04  -0.03  -0.05    -0.01  -0.03  -0.04     0.03   0.03   0.09
  25   1     0.04   0.01   0.07    -0.01  -0.02  -0.13     0.04  -0.03   0.04
  26   1     0.10   0.01   0.04    -0.02  -0.07  -0.04    -0.01   0.00   0.01
  27   1    -0.03   0.00   0.09     0.02   0.07  -0.06     0.06  -0.09  -0.02
  28   1     0.04   0.03   0.13     0.01   0.02  -0.05     0.01  -0.09  -0.05
  29   7    -0.14   0.17  -0.08    -0.10   0.07   0.09    -0.05   0.20   0.14
  30   6    -0.13   0.04  -0.04    -0.10   0.15   0.01    -0.06   0.14   0.08
  31   7    -0.13  -0.06  -0.02    -0.09   0.25  -0.07    -0.01   0.14   0.03
  32   6    -0.12  -0.13  -0.02    -0.07   0.06  -0.03    -0.02  -0.00  -0.02
  33   6    -0.06  -0.10   0.03     0.08  -0.12  -0.14     0.03  -0.10  -0.09
  34   6    -0.12   0.01  -0.01     0.02  -0.21  -0.08    -0.09  -0.12  -0.05
  35   6    -0.14   0.09  -0.01    -0.04   0.02  -0.04    -0.14   0.04   0.03
  36   6    -0.16   0.05  -0.05    -0.15   0.13   0.00    -0.15   0.10   0.08
  37   6    -0.08  -0.04  -0.01    -0.03  -0.06   0.09     0.11  -0.09   0.14
  38   6    -0.17   0.16  -0.07     0.02  -0.22   0.08     0.06   0.00   0.11
  39   6    -0.08   0.27  -0.12    -0.05  -0.07   0.17     0.06   0.20   0.16
  40   1    -0.03  -0.06  -0.00    -0.02   0.04  -0.02     0.01   0.01  -0.02
  41   1    -0.05  -0.04  -0.02    -0.04  -0.00   0.03    -0.03  -0.01   0.01
  42   1    -0.01  -0.05   0.01     0.04  -0.08  -0.04     0.02  -0.06  -0.04
  43   1     0.00  -0.02   0.02     0.06  -0.00  -0.07     0.04  -0.01  -0.03
  44   1    -0.05  -0.01  -0.02    -0.04  -0.09   0.01    -0.06  -0.06  -0.01
  45   1    -0.03   0.01   0.01     0.04  -0.10  -0.04    -0.01  -0.05  -0.03
  46   1    -0.03   0.03   0.02     0.03   0.03  -0.02    -0.01   0.03   0.02
  47   1    -0.05   0.05  -0.01    -0.04   0.00  -0.01    -0.07   0.01   0.01
  48   1    -0.05   0.02  -0.02    -0.05   0.05   0.01    -0.05   0.04   0.04
  49   1    -0.05   0.01  -0.03    -0.06   0.02   0.01    -0.05   0.02   0.02
  50   1     0.03  -0.01   0.00    -0.02  -0.02   0.09     0.07  -0.02   0.10
  51   1    -0.04  -0.05   0.00     0.01  -0.05  -0.01     0.03  -0.09   0.02
  52   1    -0.04   0.06  -0.03     0.01  -0.11   0.05     0.04  -0.02   0.05
  53   1    -0.10   0.04  -0.01     0.02  -0.07  -0.03    -0.01  -0.01   0.00
  54   1     0.03   0.08  -0.05    -0.02  -0.02   0.09     0.06   0.06   0.06
  55   1    -0.04   0.12  -0.04    -0.01  -0.03   0.05     0.01   0.09   0.05
  56   6     0.01  -0.02  -0.02     0.03   0.01   0.00     0.08   0.09  -0.09
  57   8     0.13  -0.03  -0.10     0.07  -0.03  -0.02    -0.06  -0.03  -0.03
  58   6    -0.01  -0.03  -0.01    -0.03   0.01   0.00     0.08   0.02  -0.12
  59   8    -0.13  -0.10   0.03    -0.08  -0.03  -0.01    -0.06   0.04   0.00
                     16                     17                     18
                        a                      a                      a 
 Frequencies --   158.6164               162.7195               178.0839
 Red. masses --    19.6547                34.4822                10.5419
 Frc consts  --     0.0000                 0.0000                 0.0000
 IR Inten    --     0.0909                 0.3476                 3.4723
 Raman Activ --     0.0000                 0.0000                 0.0000
 Depolar     --     0.0000                 0.0000                 0.0000
 Atom AN      X      Y      Z        X      Y      Z        X      Y      Z
   1  28     0.02   0.40   0.23     0.70  -0.04   0.04    -0.19  -0.01   0.01
   2   7     0.05  -0.02   0.15    -0.05   0.02  -0.12    -0.03  -0.14  -0.16
   3   6     0.06  -0.05   0.08    -0.06   0.04  -0.06    -0.04  -0.05  -0.13
   4   7     0.05  -0.08  -0.16    -0.07   0.05   0.09     0.02   0.04   0.18
   5   6     0.07  -0.06  -0.06    -0.07   0.06   0.07    -0.02   0.07   0.04
   6   6     0.16   0.05  -0.00    -0.10   0.03   0.05    -0.18  -0.10  -0.05
   7   6    -0.05   0.01  -0.02    -0.04   0.04   0.01     0.12  -0.04   0.03
   8   6    -0.09  -0.18  -0.01    -0.03   0.09  -0.03     0.18   0.19   0.02
   9   6     0.06  -0.07   0.07    -0.07   0.04  -0.05    -0.10  -0.02  -0.13
  10   6     0.13  -0.07   0.12    -0.14   0.05  -0.07     0.08   0.00  -0.03
  11   6     0.04  -0.08  -0.05    -0.08   0.09   0.06     0.12  -0.09   0.01
  12   6     0.11  -0.05  -0.12    -0.12   0.06   0.08     0.03  -0.14   0.05
  13   1     0.01  -0.02  -0.04    -0.02   0.02   0.03     0.01   0.04   0.04
  14   1     0.02  -0.04   0.01    -0.02   0.02   0.01    -0.01   0.06  -0.03
  15   1     0.07   0.07   0.04    -0.03  -0.01   0.00    -0.08  -0.11  -0.08
  16   1     0.10  -0.01  -0.03    -0.04   0.01   0.02    -0.14   0.01   0.03
  17   1    -0.04   0.03  -0.01    -0.01   0.01   0.00     0.06  -0.06   0.02
  18   1    -0.03   0.01  -0.01    -0.00   0.00   0.00     0.05  -0.00   0.02
  19   1    -0.02  -0.11   0.03    -0.01   0.04  -0.02     0.04   0.15  -0.05
  20   1    -0.08  -0.06  -0.05     0.00   0.03   0.01     0.12   0.07   0.08
  21   1     0.02  -0.02   0.04    -0.02   0.01  -0.02    -0.05  -0.02  -0.09
  22   1     0.04  -0.01  -0.01    -0.02   0.01  -0.01    -0.08   0.00   0.01
  23   1     0.10  -0.07   0.06    -0.09   0.05  -0.04     0.01   0.04  -0.03
  24   1     0.02   0.04   0.10    -0.03  -0.03  -0.06     0.04  -0.02  -0.04
  25   1     0.01  -0.03  -0.04    -0.03   0.03   0.04     0.05  -0.03   0.00
  26   1    -0.03  -0.04  -0.01     0.00   0.05   0.01     0.04  -0.03   0.00
  27   1     0.09   0.02  -0.05    -0.08  -0.01   0.04    -0.03  -0.07   0.03
  28   1     0.01  -0.05  -0.08    -0.02   0.05   0.06     0.03  -0.03   0.05
  29   7    -0.05   0.12  -0.10    -0.05   0.09  -0.08    -0.03   0.21   0.04
  30   6    -0.06   0.04  -0.09    -0.05   0.03  -0.06    -0.04   0.13  -0.02
  31   7    -0.06  -0.19   0.01    -0.06  -0.10   0.00     0.02  -0.18   0.06
  32   6    -0.07  -0.09  -0.02    -0.07  -0.08  -0.01    -0.02  -0.07  -0.04
  33   6    -0.17   0.02   0.05    -0.09  -0.06   0.00    -0.18   0.10   0.06
  34   6     0.04  -0.01   0.02    -0.04  -0.03  -0.02     0.12  -0.01   0.05
  35   6     0.09  -0.10  -0.15    -0.04  -0.02  -0.09     0.17  -0.12  -0.15
  36   6    -0.06   0.03  -0.10    -0.06   0.02  -0.06    -0.10   0.12  -0.05
  37   6    -0.13   0.07  -0.12    -0.14   0.04  -0.07     0.08   0.02  -0.02
  38   6    -0.05  -0.09  -0.04    -0.08  -0.10  -0.05     0.12   0.04   0.08
  39   6    -0.11  -0.13   0.02    -0.12  -0.09  -0.01     0.04   0.03   0.15
  40   1    -0.02  -0.05  -0.00    -0.02  -0.03  -0.00     0.01  -0.06  -0.01
  41   1    -0.02  -0.02  -0.03    -0.02  -0.02  -0.01    -0.01  -0.01  -0.06
  42   1    -0.07   0.07   0.04    -0.03  -0.00   0.01    -0.08   0.13   0.05
  43   1    -0.11  -0.03   0.01    -0.04  -0.02   0.00    -0.14  -0.03   0.01
  44   1     0.03   0.01   0.03    -0.01  -0.01  -0.01     0.06   0.01   0.06
  45   1     0.03  -0.00   0.01    -0.00  -0.00   0.00     0.05  -0.01   0.01
  46   1     0.01  -0.03  -0.11    -0.01  -0.00  -0.04     0.04  -0.03  -0.15
  47   1     0.08  -0.07  -0.03     0.00  -0.02  -0.02     0.12  -0.11  -0.02
  48   1    -0.02   0.03  -0.04    -0.02   0.01  -0.02    -0.05   0.09  -0.02
  49   1    -0.04  -0.01  -0.01    -0.02   0.00  -0.01    -0.08  -0.01   0.01
  50   1    -0.10   0.02  -0.10    -0.09   0.01  -0.06     0.01   0.01  -0.05
  51   1    -0.02   0.11  -0.02    -0.03   0.06  -0.01     0.04   0.04  -0.00
  52   1    -0.01  -0.05  -0.00    -0.03  -0.05  -0.00     0.05   0.02   0.03
  53   1     0.03  -0.03  -0.03     0.00  -0.03  -0.03     0.04   0.01   0.03
  54   1    -0.09  -0.03   0.05    -0.08  -0.03   0.03    -0.03   0.01   0.07
  55   1    -0.01  -0.10  -0.00    -0.02  -0.07  -0.01     0.03  -0.03   0.05
  56   6     0.02   0.09   0.10     0.16  -0.02   0.04    -0.01  -0.05  -0.01
  57   8     0.07  -0.05   0.06     0.02  -0.03   0.14     0.01   0.04  -0.01
  58   6    -0.01   0.13   0.03     0.16  -0.03   0.03    -0.01   0.04   0.03
  59   8    -0.06   0.02  -0.07     0.02  -0.11   0.11     0.00  -0.01  -0.04
                     19                     20                     21
                        a                      a                      a 
 Frequencies --   188.6104               220.6574               235.2588
 Red. masses --    16.9774                14.1222                10.9486
 Frc consts  --     0.0000                 0.0000                 0.0000
 IR Inten    --     0.6137                 1.4934                 0.0279
 Raman Activ --     0.0000                 0.0000                 0.0000
 Depolar     --     0.0000                 0.0000                 0.0000
 Atom AN      X      Y      Z        X      Y      Z        X      Y      Z
   1  28     0.00  -0.34  -0.19     0.07   0.10  -0.17    -0.01  -0.07  -0.04
   2   7     0.02   0.15   0.06     0.04  -0.03  -0.11    -0.06   0.04   0.26
   3   6     0.03   0.07   0.09     0.04  -0.04  -0.01    -0.07   0.06   0.04
   4   7    -0.04  -0.00  -0.12     0.05  -0.04   0.03    -0.08   0.06  -0.05
   5   6    -0.00  -0.05  -0.01     0.04  -0.04   0.02    -0.08   0.05  -0.04
   6   6     0.13   0.08   0.05     0.01   0.01   0.03    -0.04  -0.01  -0.05
   7   6    -0.11   0.03  -0.04    -0.07  -0.00   0.01     0.11   0.02   0.02
   8   6    -0.14  -0.12  -0.01    -0.07  -0.03   0.03     0.10   0.03  -0.07
   9   6     0.10   0.05   0.12     0.02  -0.04   0.05    -0.05   0.06  -0.10
  10   6    -0.14   0.03  -0.03    -0.01  -0.04  -0.05     0.04   0.04   0.11
  11   6    -0.13   0.15   0.01     0.04   0.06   0.06    -0.05  -0.17  -0.11
  12   6    -0.07   0.17  -0.03     0.01  -0.01   0.02    -0.02   0.01   0.03
  13   1    -0.02  -0.03  -0.03     0.01  -0.01  -0.01    -0.02   0.02   0.00
  14   1     0.01  -0.04   0.03     0.02  -0.02   0.01    -0.03   0.02  -0.02
  15   1     0.06   0.08   0.07     0.01   0.02   0.01    -0.02  -0.04  -0.02
  16   1     0.11  -0.01  -0.02     0.02  -0.01   0.00    -0.03   0.02  -0.01
  17   1    -0.05   0.05  -0.03    -0.02   0.01  -0.00     0.02  -0.02   0.03
  18   1    -0.05  -0.01  -0.02    -0.03  -0.01  -0.00     0.06   0.02   0.02
  19   1    -0.04  -0.11   0.05    -0.02  -0.02   0.02     0.05   0.01  -0.04
  20   1    -0.09  -0.05  -0.06    -0.03  -0.01   0.00     0.03   0.01  -0.02
  21   1     0.06   0.04   0.08     0.00  -0.02   0.03    -0.02   0.02  -0.06
  22   1     0.08  -0.00  -0.01     0.02  -0.02   0.01    -0.03   0.03  -0.01
  23   1    -0.06  -0.00  -0.00    -0.04   0.01  -0.02     0.09  -0.02   0.05
  24   1    -0.04  -0.00  -0.01     0.01  -0.04  -0.04    -0.00   0.06   0.09
  25   1    -0.06   0.05   0.03     0.00   0.02   0.06    -0.00  -0.06  -0.14
  26   1    -0.03   0.06  -0.00     0.03   0.05   0.00    -0.06  -0.14   0.00
  27   1    -0.00   0.05  -0.01    -0.01  -0.03   0.02     0.00   0.06  -0.01
  28   1    -0.03   0.05  -0.03     0.01   0.01   0.02    -0.01  -0.03   0.00
  29   7    -0.02   0.13   0.10     0.04   0.11  -0.04     0.06   0.25  -0.10
  30   6    -0.03   0.12   0.02     0.04   0.03   0.03     0.07   0.07   0.03
  31   7     0.04  -0.11   0.06     0.05  -0.00   0.05     0.09  -0.01   0.07
  32   6     0.00  -0.04  -0.03     0.04   0.01   0.04     0.08  -0.02   0.06
  33   6    -0.13   0.09   0.04     0.01  -0.03   0.00     0.04  -0.05   0.02
  34   6     0.11  -0.02   0.05    -0.07  -0.01   0.01    -0.11   0.03   0.01
  35   6     0.14  -0.07  -0.10    -0.07  -0.01   0.05    -0.10  -0.05   0.06
  36   6    -0.10   0.13  -0.02     0.02  -0.03   0.06     0.05  -0.06   0.11
  37   6     0.14  -0.01   0.04    -0.01   0.06   0.01    -0.04   0.12  -0.02
  38   6     0.13   0.09   0.12     0.03  -0.09  -0.02     0.05  -0.19  -0.09
  39   6     0.07   0.06   0.16     0.01  -0.01   0.02     0.02   0.04  -0.00
  40   1     0.02  -0.04  -0.01     0.01   0.02   0.01     0.02   0.01   0.01
  41   1    -0.01  -0.00  -0.05     0.02   0.00   0.02     0.03  -0.01   0.03
  42   1    -0.06   0.11   0.03     0.01  -0.02  -0.02     0.02  -0.04  -0.02
  43   1    -0.11  -0.02  -0.00     0.02  -0.00   0.01     0.04   0.00   0.03
  44   1     0.05  -0.00   0.06    -0.02  -0.00  -0.01    -0.02   0.02  -0.04
  45   1     0.05  -0.02   0.01    -0.03   0.00   0.00    -0.06   0.03   0.01
  46   1     0.04  -0.01  -0.11    -0.03  -0.01   0.03    -0.05  -0.03   0.03
  47   1     0.09  -0.08  -0.01    -0.03   0.00   0.01    -0.03  -0.02   0.02
  48   1    -0.06   0.09  -0.01     0.00  -0.02   0.03     0.02  -0.05   0.05
  49   1    -0.08  -0.01   0.00     0.02   0.00   0.02     0.04   0.00   0.04
  50   1     0.06  -0.00  -0.00    -0.04   0.02  -0.02    -0.09   0.03  -0.04
  51   1     0.04  -0.01   0.00     0.01   0.06   0.01     0.01   0.11   0.01
  52   1     0.06   0.05   0.03     0.00  -0.07   0.01     0.00  -0.15   0.02
  53   1     0.03   0.03   0.06     0.03  -0.03  -0.05     0.06  -0.07  -0.13
  54   1     0.00   0.02   0.05    -0.01   0.00   0.04     0.00   0.02   0.06
  55   1     0.03   0.00   0.06     0.01  -0.02  -0.00     0.01  -0.01  -0.03
  56   6    -0.12  -0.04  -0.08    -0.17  -0.55  -0.06    -0.31   0.09  -0.01
  57   8     0.00   0.04  -0.17    -0.01   0.24  -0.06     0.03  -0.01  -0.26
  58   6     0.12  -0.09   0.01    -0.16   0.34   0.44     0.31   0.03   0.07
  59   8    -0.00  -0.12   0.12    -0.01  -0.07  -0.23    -0.03  -0.23   0.13
                     22                     23                     24
                        a                      a                      a 
 Frequencies --   238.8567               243.7706               252.6701
 Red. masses --    10.2090                 8.7044                12.8761
 Frc consts  --     0.0000                 0.0000                 0.0000
 IR Inten    --     0.2914                 3.1165                 8.3994
 Raman Activ --     0.0000                 0.0000                 0.0000
 Depolar     --     0.0000                 0.0000                 0.0000
 Atom AN      X      Y      Z        X      Y      Z        X      Y      Z
   1  28     0.19   0.02  -0.04    -0.00   0.07   0.04     0.26   0.03  -0.05
   2   7     0.01   0.04   0.23    -0.08  -0.04  -0.02    -0.10   0.01   0.23
   3   6     0.01   0.04   0.06    -0.08  -0.02  -0.04    -0.10   0.03   0.03
   4   7    -0.00   0.03   0.12    -0.08  -0.01  -0.24    -0.13   0.01  -0.27
   5   6    -0.01  -0.07  -0.10    -0.07   0.15   0.10    -0.12   0.15   0.04
   6   6    -0.08   0.05  -0.07     0.07  -0.09   0.05     0.06  -0.07   0.00
   7   6     0.08   0.10   0.14    -0.01  -0.13  -0.18     0.04  -0.09  -0.15
   8   6     0.01  -0.04  -0.16     0.08   0.09   0.17     0.11   0.08   0.11
   9   6    -0.06   0.05  -0.16     0.01  -0.03   0.12    -0.03   0.03   0.05
  10   6     0.02   0.02   0.13     0.03  -0.00  -0.05     0.05   0.01   0.06
  11   6    -0.08  -0.19  -0.12     0.08   0.06   0.06     0.01  -0.10  -0.04
  12   6    -0.04   0.05   0.07     0.04  -0.08  -0.04    -0.00  -0.03   0.03
  13   1    -0.02  -0.04  -0.07     0.01   0.08   0.12    -0.01   0.08   0.10
  14   1     0.05  -0.05  -0.02    -0.11   0.10   0.00    -0.11   0.10  -0.01
  15   1    -0.04  -0.02  -0.05     0.03  -0.01   0.05     0.02  -0.02   0.04
  16   1    -0.06   0.07  -0.03     0.05  -0.07   0.03     0.04  -0.05   0.01
  17   1    -0.03  -0.01   0.12     0.07  -0.00  -0.15     0.07  -0.01  -0.11
  18   1     0.10   0.09   0.08    -0.10  -0.10  -0.10    -0.05  -0.07  -0.07
  19   1     0.06  -0.06  -0.06    -0.04   0.11   0.04    -0.01   0.09   0.02
  20   1    -0.04  -0.02  -0.08     0.09   0.04   0.11     0.09   0.04   0.08
  21   1    -0.03   0.00  -0.07     0.01   0.00   0.03    -0.01   0.02  -0.02
  22   1    -0.03   0.06  -0.05    -0.01  -0.04   0.06    -0.04   0.01   0.05
  23   1     0.08  -0.00   0.04    -0.01  -0.03   0.00     0.07  -0.06   0.05
  24   1    -0.02   0.03   0.09     0.03   0.03  -0.02     0.01   0.08   0.07
  25   1    -0.02  -0.06  -0.16     0.03   0.02   0.08     0.01  -0.03  -0.06
  26   1    -0.06  -0.17   0.01     0.04   0.07  -0.01    -0.02  -0.07   0.01
  27   1    -0.04   0.07   0.00     0.05  -0.03  -0.01     0.02   0.03  -0.01
  28   1    -0.01   0.01   0.03     0.00  -0.05  -0.03    -0.01  -0.05  -0.01
  29   7     0.02  -0.20   0.08     0.08  -0.04  -0.02    -0.10  -0.20   0.11
  30   6     0.01  -0.07  -0.00     0.08  -0.04   0.01    -0.10  -0.04  -0.01
  31   7    -0.00  -0.12   0.04     0.08  -0.22   0.11    -0.13   0.23  -0.15
  32   6    -0.00   0.12   0.01     0.08   0.16   0.08    -0.12  -0.11  -0.11
  33   6    -0.07   0.03  -0.08    -0.08  -0.00  -0.10     0.06   0.03   0.06
  34   6     0.08  -0.17  -0.01     0.01  -0.23  -0.02     0.05   0.17   0.00
  35   6     0.01   0.15  -0.05    -0.08   0.19  -0.01     0.11  -0.13  -0.02
  36   6    -0.05   0.11  -0.12    -0.01   0.09  -0.08    -0.03  -0.06   0.01
  37   6     0.02  -0.11   0.05    -0.03  -0.05   0.02     0.05  -0.06   0.02
  38   6    -0.08   0.19   0.10    -0.08   0.08   0.02     0.01   0.09   0.06
  39   6    -0.04  -0.08  -0.01    -0.04  -0.07  -0.05    -0.00  -0.01   0.04
  40   1    -0.02   0.09  -0.00    -0.01   0.15   0.01    -0.01  -0.13  -0.02
  41   1     0.05   0.04   0.03     0.11   0.06   0.09    -0.11  -0.04  -0.09
  42   1    -0.03   0.05  -0.01    -0.03   0.04  -0.03     0.02  -0.02   0.04
  43   1    -0.06  -0.01  -0.07    -0.05  -0.02  -0.08     0.04   0.02   0.04
  44   1    -0.03  -0.10   0.07    -0.07  -0.13   0.08     0.07   0.10  -0.05
  45   1     0.10  -0.11  -0.03     0.10  -0.14  -0.04    -0.05   0.10   0.02
  46   1     0.06   0.08   0.03     0.04   0.09   0.07    -0.01  -0.06  -0.07
  47   1    -0.04   0.08  -0.02    -0.09   0.12  -0.02     0.09  -0.09   0.01
  48   1    -0.03   0.06  -0.04    -0.01   0.03  -0.01    -0.01   0.01  -0.02
  49   1    -0.03   0.01  -0.07     0.01   0.03  -0.06    -0.04  -0.04   0.02
  50   1     0.08  -0.03   0.02     0.01  -0.02  -0.03     0.07  -0.01   0.07
  51   1    -0.02  -0.08   0.02    -0.03   0.00   0.03     0.01  -0.10  -0.03
  52   1    -0.02   0.16  -0.03    -0.03   0.08  -0.02     0.01   0.07  -0.00
  53   1    -0.06   0.07   0.14    -0.04   0.03   0.07    -0.02   0.03   0.07
  54   1    -0.04  -0.03  -0.05    -0.05  -0.03  -0.02     0.02  -0.01  -0.03
  55   1    -0.01  -0.03   0.01    -0.00  -0.05  -0.02    -0.00   0.03   0.04
  56   6    -0.10  -0.14  -0.00    -0.15   0.06   0.01    -0.11  -0.12   0.00
  57   8     0.02   0.05  -0.05     0.02  -0.01  -0.12     0.01   0.04  -0.06
  58   6    -0.07   0.08   0.12     0.15   0.04   0.05    -0.10   0.06   0.11
  59   8     0.02   0.01  -0.06    -0.02  -0.11   0.05     0.01   0.02  -0.06
                     25                     26                     27
                        a                      a                      a 
 Frequencies --   270.6550               288.3765               291.0159
 Red. masses --    14.5841                 9.5849                 9.1988
 Frc consts  --     0.0000                 0.0000                 0.0000
 IR Inten    --     2.8282                 1.9565                 0.0197
 Raman Activ --     0.0000                 0.0000                 0.0000
 Depolar     --     0.0000                 0.0000                 0.0000
 Atom AN      X      Y      Z        X      Y      Z        X      Y      Z
   1  28    -0.00   0.23   0.13     0.16  -0.02   0.03     0.00   0.08   0.05
   2   7     0.03  -0.04  -0.21    -0.07  -0.00   0.08     0.07  -0.01  -0.11
   3   6     0.03  -0.04  -0.05    -0.08   0.08   0.11     0.09  -0.09  -0.13
   4   7     0.08  -0.00   0.16    -0.04   0.11  -0.07     0.06  -0.12   0.10
   5   6     0.07  -0.06   0.00    -0.03   0.00  -0.07     0.04  -0.01   0.08
   6   6    -0.05   0.01   0.00    -0.05  -0.14  -0.10     0.03   0.14   0.11
   7   6    -0.02   0.03   0.09     0.05  -0.11   0.20    -0.06   0.11  -0.18
   8   6    -0.05  -0.05  -0.05     0.00  -0.18   0.05    -0.01   0.19  -0.06
   9   6     0.00  -0.04  -0.03    -0.14   0.08   0.07     0.14  -0.09  -0.08
  10   6    -0.00  -0.01  -0.09     0.02   0.09  -0.13    -0.02  -0.11   0.10
  11   6     0.06   0.11   0.06     0.13   0.14   0.06    -0.11  -0.12  -0.04
  12   6     0.05  -0.05  -0.08     0.11  -0.07  -0.13    -0.10   0.05   0.10
  13   1     0.01  -0.03  -0.03    -0.02   0.00   0.02     0.02  -0.00  -0.02
  14   1     0.06  -0.04   0.00    -0.00   0.02  -0.05     0.01  -0.03   0.05
  15   1    -0.02  -0.01  -0.03    -0.03  -0.08  -0.06     0.02   0.07   0.06
  16   1    -0.04   0.02   0.01    -0.06  -0.00  -0.02     0.05   0.01   0.02
  17   1    -0.03  -0.01   0.06    -0.02  -0.09   0.13     0.01   0.09  -0.12
  18   1     0.03   0.03   0.05     0.06   0.05   0.09    -0.05  -0.05  -0.09
  19   1     0.01  -0.04  -0.01     0.03  -0.11   0.03    -0.03   0.11  -0.03
  20   1    -0.04  -0.02  -0.03    -0.02  -0.07  -0.06     0.02   0.07   0.06
  21   1     0.00  -0.02   0.01    -0.06   0.02  -0.04     0.05  -0.03   0.04
  22   1     0.01  -0.02  -0.02    -0.07   0.06   0.03     0.07  -0.06  -0.04
  23   1    -0.06   0.04  -0.05    -0.04   0.04  -0.04     0.02  -0.04   0.03
  24   1     0.01  -0.06  -0.08     0.03   0.02  -0.08    -0.03  -0.03   0.06
  25   1     0.02   0.04   0.10     0.05   0.04   0.10    -0.05  -0.03  -0.08
  26   1     0.04   0.11  -0.01     0.05   0.13  -0.02    -0.04  -0.10   0.01
  27   1     0.03  -0.05  -0.01     0.13  -0.01  -0.05    -0.11   0.00   0.04
  28   1     0.01  -0.00  -0.03     0.00  -0.08  -0.11    -0.00   0.07   0.09
  29   7    -0.03  -0.20   0.07    -0.06  -0.06   0.04    -0.08  -0.10   0.05
  30   6    -0.03  -0.07  -0.01    -0.07  -0.13  -0.01    -0.09  -0.16  -0.01
  31   7    -0.08   0.14  -0.09    -0.04   0.01  -0.12    -0.06   0.02  -0.16
  32   6    -0.07  -0.03  -0.05    -0.03   0.06  -0.04    -0.04   0.07  -0.05
  33   6     0.05   0.00   0.00    -0.05   0.16   0.07    -0.03   0.18   0.07
  34   6     0.02   0.09  -0.03     0.05  -0.11   0.19     0.06  -0.10   0.20
  35   6     0.05  -0.07  -0.02     0.01   0.05   0.17     0.02   0.05   0.20
  36   6     0.00  -0.05  -0.02    -0.14  -0.09  -0.03    -0.14  -0.12  -0.04
  37   6     0.00  -0.08   0.03     0.01   0.06  -0.14     0.02   0.03  -0.15
  38   6    -0.06   0.12   0.06     0.12  -0.12  -0.09     0.12  -0.10  -0.09
  39   6    -0.05  -0.09  -0.00     0.11   0.14  -0.01     0.10   0.12  -0.01
  40   1    -0.01  -0.05  -0.01    -0.02  -0.01   0.01    -0.02  -0.02   0.01
  41   1    -0.06  -0.02  -0.03    -0.00   0.03  -0.04    -0.01   0.03  -0.06
  42   1     0.02  -0.03   0.01    -0.03   0.09   0.03    -0.02   0.09   0.03
  43   1     0.04   0.02   0.01    -0.06   0.02  -0.01    -0.05   0.03  -0.01
  44   1     0.03   0.05  -0.04    -0.01  -0.06   0.13    -0.01  -0.06   0.14
  45   1    -0.03   0.06   0.00     0.05  -0.10   0.01     0.05  -0.10   0.01
  46   1    -0.01  -0.03  -0.03     0.03   0.03   0.11     0.04   0.03   0.12
  47   1     0.04  -0.04  -0.00    -0.02   0.08   0.03    -0.02   0.08   0.03
  48   1    -0.00   0.00  -0.02    -0.05   0.02  -0.04    -0.05   0.02  -0.04
  49   1    -0.01  -0.03  -0.00    -0.07  -0.06  -0.03    -0.07  -0.07  -0.03
  50   1     0.06  -0.02   0.06    -0.04   0.02  -0.06    -0.03   0.01  -0.05
  51   1    -0.01  -0.10  -0.01     0.03   0.06  -0.05     0.03   0.04  -0.06
  52   1    -0.02   0.11  -0.02     0.05  -0.11   0.02     0.05  -0.09   0.01
  53   1    -0.04   0.05   0.10     0.05  -0.05  -0.11     0.04  -0.04  -0.10
  54   1    -0.03  -0.03  -0.04     0.13   0.04  -0.02     0.12   0.04  -0.02
  55   1    -0.01  -0.03   0.01     0.00   0.13   0.01     0.00   0.12   0.01
  56   6    -0.36   0.15   0.04    -0.09   0.03   0.02    -0.07   0.03   0.00
  57   8     0.04  -0.02  -0.27     0.02  -0.01  -0.07     0.01  -0.01  -0.06
  58   6     0.37   0.10   0.11    -0.09  -0.03  -0.02     0.06   0.02   0.02
  59   8    -0.04  -0.25   0.12     0.02   0.06  -0.03    -0.01  -0.05   0.02
                     28                     29                     30
                        a                      a                      a 
 Frequencies --   326.6026               351.0710               352.0895
 Red. masses --    19.3319                10.4607                 9.5077
 Frc consts  --     0.0000                 0.0000                 0.0000
 IR Inten    --     1.6146                 0.7454                 0.6362
 Raman Activ --     0.0000                 0.0000                 0.0000
 Depolar     --     0.0000                 0.0000                 0.0000
 Atom AN      X      Y      Z        X      Y      Z        X      Y      Z
   1  28     0.24  -0.15   0.26     0.09  -0.05   0.09    -0.00  -0.03  -0.02
   2   7     0.06   0.00  -0.01    -0.09  -0.08  -0.22     0.11   0.08   0.23
   3   6     0.07  -0.05  -0.05    -0.09   0.01  -0.02     0.11  -0.02   0.01
   4   7     0.04  -0.08   0.05     0.04   0.17   0.10    -0.03  -0.18  -0.10
   5   6     0.04  -0.05   0.06     0.08  -0.04  -0.15    -0.07   0.02   0.16
   6   6    -0.02   0.03   0.07     0.21  -0.04  -0.13    -0.21   0.03   0.14
   7   6    -0.04   0.03  -0.04     0.01  -0.06  -0.02    -0.03   0.06   0.02
   8   6    -0.02   0.09  -0.05     0.02  -0.08   0.14    -0.03   0.10  -0.15
   9   6     0.01  -0.03  -0.07    -0.08   0.00   0.12     0.07  -0.00  -0.13
  10   6    -0.02  -0.08  -0.02     0.05   0.17   0.07    -0.05  -0.18  -0.08
  11   6    -0.01   0.01   0.02    -0.01  -0.01  -0.07     0.02   0.02   0.07
  12   6     0.03   0.00  -0.04    -0.16  -0.04   0.09     0.17   0.05  -0.10
  13   1     0.02  -0.01  -0.01    -0.02  -0.04  -0.06     0.03   0.04   0.06
  14   1     0.01  -0.03   0.03     0.09  -0.03  -0.05    -0.08   0.02   0.06
  15   1    -0.01   0.02   0.01     0.08   0.04   0.02    -0.09  -0.04  -0.02
  16   1    -0.00  -0.00   0.02     0.13  -0.03  -0.08    -0.13   0.03   0.08
  17   1    -0.01   0.02  -0.03     0.02  -0.02  -0.02    -0.02   0.02   0.02
  18   1    -0.01  -0.02  -0.02    -0.04   0.01  -0.01     0.04  -0.01   0.01
  19   1    -0.02   0.06  -0.03    -0.01  -0.02   0.05     0.00   0.03  -0.05
  20   1     0.01   0.03   0.02     0.02  -0.02   0.03    -0.01   0.03  -0.02
  21   1    -0.01  -0.03  -0.01    -0.02   0.02   0.02     0.01  -0.02  -0.02
  22   1     0.00   0.00  -0.02    -0.03  -0.03   0.06     0.03   0.04  -0.06
  23   1    -0.03  -0.01  -0.01     0.06   0.05   0.02    -0.06  -0.05  -0.02
  24   1    -0.00  -0.05  -0.02    -0.01   0.06   0.06     0.01  -0.06  -0.06
  25   1    -0.02   0.01   0.03     0.04  -0.02  -0.07    -0.04   0.02   0.08
  26   1     0.01   0.03  -0.00    -0.03  -0.05  -0.00     0.03   0.06  -0.00
  27   1     0.03   0.00  -0.01    -0.15  -0.05   0.05     0.16   0.05  -0.06
  28   1     0.00   0.00  -0.03    -0.00   0.03   0.12     0.01  -0.03  -0.13
  29   7     0.06   0.01  -0.01    -0.09   0.23  -0.05    -0.10   0.23  -0.05
  30   6     0.07   0.07   0.02    -0.09   0.01  -0.02    -0.11   0.00  -0.02
  31   7     0.04   0.00   0.10     0.04  -0.18  -0.10     0.03  -0.18  -0.10
  32   6     0.04  -0.03   0.07     0.08   0.15  -0.05     0.07   0.15  -0.06
  33   6    -0.03  -0.08   0.01     0.21   0.13  -0.03     0.21   0.13  -0.04
  34   6    -0.04   0.02  -0.04     0.01   0.05   0.05     0.02   0.05   0.04
  35   6    -0.03  -0.01  -0.11     0.02  -0.08   0.14     0.03  -0.07   0.15
  36   6     0.02   0.08  -0.01    -0.09  -0.10   0.06    -0.07  -0.11   0.06
  37   6    -0.02   0.06   0.06     0.05  -0.15  -0.11     0.04  -0.15  -0.11
  38   6    -0.01  -0.03   0.00    -0.01   0.07  -0.03    -0.01   0.07  -0.02
  39   6     0.04   0.03  -0.02    -0.16  -0.05   0.08    -0.17  -0.05   0.09
  40   1     0.02   0.01   0.01    -0.02   0.08   0.01    -0.03   0.07   0.00
  41   1     0.01  -0.01   0.04     0.09   0.06  -0.00     0.08   0.06  -0.01
  42   1    -0.01  -0.02  -0.01     0.09  -0.05  -0.03     0.08  -0.04  -0.02
  43   1    -0.00  -0.02   0.01     0.13   0.08  -0.01     0.13   0.08  -0.02
  44   1    -0.01   0.01  -0.04     0.02   0.03   0.00     0.02   0.02   0.00
  45   1    -0.01   0.03   0.01    -0.04   0.01  -0.01    -0.04   0.00  -0.01
  46   1    -0.02  -0.01  -0.07    -0.01  -0.03   0.04    -0.00  -0.03   0.05
  47   1     0.01  -0.04  -0.02     0.02  -0.01   0.03     0.01  -0.01   0.04
  48   1    -0.01   0.02   0.02    -0.02  -0.02  -0.01    -0.01  -0.03  -0.01
  49   1     0.00   0.02  -0.01    -0.04  -0.03   0.05    -0.03  -0.03   0.06
  50   1    -0.03   0.02   0.00     0.06  -0.04  -0.03     0.06  -0.04  -0.03
  51   1    -0.00   0.05   0.03    -0.01  -0.08  -0.02    -0.01  -0.08  -0.02
  52   1    -0.02  -0.03   0.01     0.04   0.07  -0.02     0.04   0.07  -0.02
  53   1     0.01  -0.01  -0.02    -0.03   0.03   0.04    -0.03   0.03   0.05
  54   1     0.03   0.01  -0.01    -0.16  -0.02   0.07    -0.16  -0.02   0.07
  55   1     0.00   0.03  -0.02    -0.01  -0.12   0.04    -0.01  -0.12   0.04
  56   6    -0.45   0.17   0.07    -0.12   0.05   0.02     0.03  -0.02   0.01
  57   8     0.05  -0.04  -0.30     0.01  -0.01  -0.08     0.01   0.00   0.03
  58   6    -0.45  -0.15  -0.11    -0.12  -0.04  -0.03    -0.03  -0.00  -0.02
  59   8     0.05   0.28  -0.13     0.01   0.07  -0.03    -0.00   0.02  -0.01
                     31                     32                     33
                        a                      a                      a 
 Frequencies --   367.6449               367.9935               375.2512
 Red. masses --     8.6823                 9.1530                 8.7261
 Frc consts  --     0.0000                 0.0000                 0.0000
 IR Inten    --     0.2627                 0.2191                 1.4756
 Raman Activ --     0.0000                 0.0000                 0.0000
 Depolar     --     0.0000                 0.0000                 0.0000
 Atom AN      X      Y      Z        X      Y      Z        X      Y      Z
   1  28     0.00  -0.01  -0.00     0.02  -0.01   0.03    -0.00  -0.02  -0.01
   2   7     0.06   0.02   0.05    -0.08  -0.05  -0.05    -0.06  -0.10   0.22
   3   6     0.04   0.06  -0.06    -0.06  -0.08   0.08    -0.06  -0.00   0.11
   4   7     0.03   0.03  -0.06    -0.03  -0.03   0.12    -0.01   0.05   0.28
   5   6     0.10  -0.22   0.02    -0.11   0.26  -0.03    -0.02  -0.06  -0.10
   6   6     0.08  -0.11   0.09    -0.07   0.15  -0.11     0.15   0.10  -0.05
   7   6    -0.16  -0.14   0.07     0.21   0.19  -0.11     0.08   0.08  -0.18
   8   6    -0.11   0.18  -0.01     0.14  -0.21   0.01     0.10   0.08  -0.02
   9   6    -0.19   0.13  -0.08     0.23  -0.17   0.09    -0.03  -0.01  -0.06
  10   6     0.02   0.04  -0.01    -0.03  -0.04   0.01    -0.15   0.02  -0.04
  11   6     0.04  -0.01  -0.01    -0.06   0.01   0.03    -0.07  -0.03   0.11
  12   6     0.06   0.03   0.01    -0.08  -0.06  -0.02     0.03  -0.16  -0.11
  13   1    -0.02  -0.11  -0.04     0.02   0.12   0.04    -0.04  -0.05  -0.09
  14   1     0.07  -0.11   0.03    -0.08   0.12  -0.04     0.06  -0.06  -0.01
  15   1     0.05   0.05   0.05    -0.04  -0.06  -0.06     0.07   0.06   0.07
  16   1     0.09  -0.08   0.00    -0.09   0.09  -0.01     0.12   0.01  -0.07
  17   1    -0.05  -0.04   0.02     0.06   0.05  -0.04     0.05   0.06  -0.10
  18   1    -0.03  -0.05   0.02     0.03   0.06  -0.04    -0.03  -0.02  -0.08
  19   1    -0.07   0.14  -0.03     0.08  -0.16   0.03     0.02   0.06  -0.03
  20   1     0.07   0.07   0.05    -0.08  -0.08  -0.05     0.04   0.03   0.04
  21   1    -0.09  -0.01  -0.04     0.11   0.01   0.05    -0.01   0.00  -0.05
  22   1    -0.08   0.08  -0.01     0.09  -0.09   0.01    -0.03   0.01  -0.00
  23   1     0.01   0.00   0.00    -0.03   0.01  -0.01    -0.12   0.08  -0.05
  24   1     0.01   0.02   0.00    -0.01  -0.03  -0.01    -0.02  -0.07  -0.10
  25   1     0.01  -0.00  -0.02    -0.01   0.00   0.04     0.00  -0.01   0.08
  26   1     0.01  -0.02   0.00    -0.01   0.03  -0.00    -0.03   0.05   0.01
  27   1     0.03   0.02  -0.00    -0.02  -0.03  -0.00     0.14  -0.01  -0.06
  28   1     0.01   0.00  -0.01    -0.02  -0.02  -0.01    -0.04  -0.10  -0.15
  29   7    -0.07   0.07  -0.00    -0.07   0.06   0.01     0.05   0.12  -0.18
  30   6    -0.06  -0.02   0.11    -0.05  -0.02   0.09     0.06   0.08  -0.06
  31   7    -0.03  -0.06   0.08    -0.02  -0.08   0.07     0.02   0.24  -0.09
  32   6    -0.12  -0.12  -0.25    -0.09  -0.08  -0.20     0.02  -0.10   0.01
  33   6    -0.09   0.02  -0.18    -0.05   0.02  -0.15    -0.13   0.01   0.10
  34   6     0.20  -0.02  -0.20     0.17  -0.00  -0.17    -0.08  -0.10   0.15
  35   6     0.14   0.11   0.20     0.12   0.08   0.15    -0.09   0.02   0.07
  36   6     0.23   0.00   0.19     0.18   0.01   0.15     0.03  -0.05   0.02
  37   6    -0.02   0.01   0.04    -0.03   0.01   0.03     0.14  -0.03   0.03
  38   6    -0.05  -0.02  -0.00    -0.05  -0.02   0.00     0.07   0.08  -0.08
  39   6    -0.08   0.03   0.03    -0.07   0.04   0.03    -0.02  -0.16  -0.07
  40   1     0.02  -0.11  -0.08     0.02  -0.07  -0.07     0.03  -0.09   0.00
  41   1    -0.09  -0.03  -0.13    -0.06  -0.02  -0.10    -0.05  -0.04  -0.04
  42   1    -0.05   0.09   0.02    -0.03   0.06   0.01    -0.06   0.08   0.02
  43   1    -0.10  -0.04  -0.08    -0.07  -0.03  -0.07    -0.11  -0.04   0.04
  44   1     0.06  -0.00  -0.05     0.05   0.00  -0.05    -0.05  -0.05   0.09
  45   1     0.04  -0.01  -0.07     0.02  -0.00  -0.06     0.02  -0.07   0.03
  46   1     0.08   0.06   0.17     0.07   0.04   0.13    -0.02   0.01   0.06
  47   1    -0.09   0.09   0.05    -0.07   0.07   0.04    -0.04   0.04   0.00
  48   1     0.11  -0.05   0.02     0.09  -0.04   0.01     0.01  -0.04   0.03
  49   1     0.10   0.04   0.09     0.07   0.03   0.07     0.02   0.00   0.01
  50   1    -0.02   0.00   0.00    -0.02   0.00  -0.01     0.11  -0.01   0.09
  51   1    -0.01   0.02   0.02    -0.01   0.02   0.02     0.02  -0.11  -0.01
  52   1    -0.01  -0.02   0.01    -0.01  -0.03   0.01    -0.00   0.06  -0.05
  53   1    -0.01  -0.01  -0.02    -0.01  -0.01  -0.02     0.02   0.03   0.03
  54   1    -0.03   0.01   0.02    -0.02   0.01   0.02    -0.13  -0.05   0.02
  55   1    -0.02  -0.00   0.01    -0.02   0.01   0.01     0.04  -0.16  -0.00
  56   6    -0.04   0.00   0.01    -0.07   0.01   0.01     0.02   0.00   0.03
  57   8     0.00   0.00  -0.02    -0.00   0.00  -0.04     0.01  -0.01   0.04
  58   6     0.02   0.01  -0.01    -0.07  -0.01  -0.00    -0.01   0.03  -0.01
  59   8    -0.00  -0.00   0.00    -0.00   0.03  -0.02    -0.01   0.03  -0.02
                     34                     35                     36
                        a                      a                      a 
 Frequencies --   375.5395               416.4097               417.0883
 Red. masses --     8.6413                 8.3193                 8.2926
 Frc consts  --     0.0000                 0.0000                 0.0000
 IR Inten    --    11.3179                 9.8849                 1.9646
 Raman Activ --     0.0000                 0.0000                 0.0000
 Depolar     --     0.0000                 0.0000                 0.0000
 Atom AN      X      Y      Z        X      Y      Z        X      Y      Z
   1  28     0.01  -0.03   0.05    -0.04   0.00  -0.00     0.00   0.00   0.00
   2   7     0.05   0.09  -0.20     0.12  -0.02   0.09    -0.14   0.02  -0.09
   3   6     0.06  -0.01  -0.09     0.13  -0.12   0.07    -0.16   0.14  -0.07
   4   7     0.02  -0.06  -0.24     0.18  -0.10  -0.00    -0.21   0.11   0.01
   5   6     0.01   0.08   0.09     0.13   0.13  -0.03    -0.16  -0.16   0.03
   6   6    -0.14  -0.07   0.03     0.07  -0.00  -0.12    -0.08   0.01   0.14
   7   6    -0.06  -0.05   0.15     0.00  -0.00  -0.01    -0.00   0.00   0.00
   8   6    -0.07  -0.09   0.02     0.00  -0.02   0.07     0.00   0.03  -0.09
   9   6     0.05  -0.01   0.06    -0.20  -0.05  -0.02     0.24   0.06   0.02
  10   6     0.13  -0.03   0.04    -0.06  -0.06   0.02     0.07   0.07  -0.02
  11   6     0.06   0.03  -0.10    -0.14   0.09  -0.02     0.18  -0.10   0.03
  12   6    -0.03   0.14   0.09    -0.11   0.07  -0.04     0.14  -0.10   0.04
  13   1     0.04   0.06   0.09     0.10   0.09   0.07    -0.12  -0.11  -0.09
  14   1    -0.06   0.07   0.01    -0.04   0.12  -0.06     0.05  -0.14   0.07
  15   1    -0.07  -0.06  -0.07     0.02   0.00  -0.05    -0.02  -0.00   0.07
  16   1    -0.12  -0.00   0.06     0.01  -0.01  -0.02    -0.00   0.01   0.02
  17   1    -0.04  -0.04   0.09     0.01  -0.01  -0.00    -0.01   0.02  -0.00
  18   1     0.03   0.02   0.07    -0.02   0.03   0.00     0.03  -0.04  -0.00
  19   1    -0.01  -0.07   0.03     0.01   0.02  -0.00    -0.01  -0.02  -0.00
  20   1    -0.05  -0.04  -0.04     0.01  -0.00   0.05    -0.01   0.00  -0.05
  21   1     0.02  -0.01   0.05    -0.14  -0.10  -0.12     0.16   0.12   0.13
  22   1     0.03  -0.01   0.00    -0.16   0.10   0.05     0.18  -0.12  -0.06
  23   1     0.11  -0.07   0.05    -0.03  -0.02   0.01     0.04   0.03  -0.01
  24   1     0.02   0.06   0.09    -0.04  -0.05   0.01     0.05   0.06  -0.02
  25   1    -0.01   0.01  -0.06    -0.05   0.03   0.03     0.06  -0.03  -0.02
  26   1     0.02  -0.03  -0.01    -0.04   0.06  -0.02     0.05  -0.06   0.02
  27   1    -0.13   0.01   0.05    -0.04   0.04  -0.02     0.06  -0.04   0.02
  28   1     0.04   0.09   0.13    -0.04   0.05  -0.01     0.04  -0.06   0.01
  29   7     0.06   0.14  -0.20     0.14  -0.07   0.08     0.12  -0.05   0.05
  30   6     0.07   0.09  -0.04     0.15   0.00   0.16     0.13   0.01   0.13
  31   7     0.03   0.26  -0.08     0.21   0.06   0.09     0.18   0.05   0.08
  32   6     0.02  -0.13  -0.02     0.16  -0.05  -0.16     0.13  -0.05  -0.13
  33   6    -0.16   0.02   0.09     0.08   0.12  -0.07     0.07   0.10  -0.06
  34   6    -0.07  -0.11   0.14     0.00   0.01  -0.00     0.00   0.00   0.00
  35   6    -0.08   0.03   0.09     0.00  -0.06   0.07    -0.00  -0.05   0.06
  36   6     0.05  -0.05   0.04    -0.24   0.05   0.04    -0.20   0.04   0.04
  37   6     0.15  -0.03   0.04    -0.07   0.02   0.08    -0.05   0.01   0.06
  38   6     0.06   0.08  -0.09    -0.17  -0.03  -0.10    -0.15  -0.02  -0.09
  39   6    -0.04  -0.17  -0.08    -0.14  -0.00  -0.10    -0.12  -0.01  -0.09
  40   1     0.04  -0.12  -0.01     0.11  -0.13  -0.05     0.10  -0.11  -0.04
  41   1    -0.07  -0.04  -0.06    -0.05  -0.01  -0.16    -0.04  -0.01  -0.13
  42   1    -0.07   0.10   0.02     0.02   0.05  -0.04     0.01   0.05  -0.03
  43   1    -0.13  -0.05   0.04     0.01   0.02  -0.01     0.00   0.02  -0.00
  44   1    -0.05  -0.06   0.09     0.01   0.01   0.01     0.01   0.01   0.01
  45   1     0.03  -0.07   0.02    -0.03  -0.02  -0.03    -0.02  -0.02  -0.03
  46   1    -0.01   0.01   0.08     0.01  -0.01  -0.02     0.01  -0.01  -0.01
  47   1    -0.05   0.05   0.01     0.01  -0.05   0.03     0.01  -0.04   0.03
  48   1     0.02  -0.04   0.03    -0.16   0.18   0.03    -0.13   0.15   0.03
  49   1     0.03   0.00   0.01    -0.19  -0.11  -0.07    -0.15  -0.09  -0.06
  50   1     0.12  -0.00   0.10    -0.04   0.01   0.03    -0.03   0.00   0.03
  51   1     0.02  -0.11  -0.00    -0.05   0.02   0.06    -0.04   0.01   0.05
  52   1    -0.01   0.05  -0.05    -0.06  -0.04  -0.01    -0.05  -0.03  -0.01
  53   1     0.02   0.03   0.02    -0.05  -0.02  -0.07    -0.05  -0.01  -0.05
  54   1    -0.15  -0.05   0.02    -0.05  -0.00  -0.05    -0.05  -0.01  -0.04
  55   1     0.04  -0.17  -0.01    -0.04  -0.02  -0.06    -0.03  -0.02  -0.05
  56   6    -0.04   0.03   0.01     0.04  -0.00  -0.01     0.05   0.02  -0.03
  57   8     0.00  -0.01  -0.03     0.00  -0.00   0.01    -0.01  -0.01   0.01
  58   6    -0.05  -0.03  -0.02     0.03   0.01  -0.00    -0.05  -0.02   0.03
  59   8     0.01   0.03  -0.01     0.00  -0.01   0.01     0.01   0.00  -0.01
                     37                     38                     39
                        a                      a                      a 
 Frequencies --   429.9534               471.4079               487.3434
 Red. masses --    21.2237                12.8944                10.0566
 Frc consts  --     0.0000                 0.0000                 0.0000
 IR Inten    --    14.5811                 0.1390                 4.1768
 Raman Activ --     0.0000                 0.0000                 0.0000
 Depolar     --     0.0000                 0.0000                 0.0000
 Atom AN      X      Y      Z        X      Y      Z        X      Y      Z
   1  28     0.00   0.37   0.21    -0.00  -0.05  -0.02     0.01   0.05  -0.08
   2   7     0.01  -0.01   0.03    -0.01  -0.01   0.00    -0.14  -0.02   0.27
   3   6     0.00   0.01   0.02    -0.02  -0.00  -0.03    -0.10  -0.13  -0.08
   4   7    -0.01   0.01  -0.01     0.00   0.02  -0.01     0.08   0.06   0.03
   5   6    -0.01   0.00  -0.01     0.01   0.00   0.01     0.12  -0.02   0.06
   6   6     0.01  -0.00  -0.01    -0.01  -0.01   0.01    -0.02  -0.01   0.06
   7   6     0.00  -0.00  -0.00     0.00  -0.00   0.01    -0.03  -0.02   0.03
   8   6     0.00   0.00  -0.00    -0.00  -0.00  -0.01    -0.02   0.02  -0.04
   9   6    -0.01   0.02  -0.00     0.03  -0.02  -0.00     0.04  -0.22  -0.08
  10   6    -0.02   0.01  -0.00     0.01   0.03  -0.00     0.13   0.10  -0.03
  11   6    -0.01  -0.02   0.02     0.00   0.02  -0.01     0.05   0.22  -0.16
  12   6     0.00  -0.01   0.00    -0.02  -0.00  -0.00    -0.18   0.00  -0.05
  13   1    -0.00   0.00   0.00    -0.00  -0.00  -0.00     0.00  -0.03  -0.02
  14   1    -0.00   0.00  -0.00     0.01  -0.01   0.01     0.08  -0.04   0.03
  15   1     0.00   0.00   0.00    -0.00  -0.01  -0.00    -0.02  -0.01  -0.03
  16   1     0.00  -0.00  -0.00    -0.01  -0.00   0.01    -0.04  -0.01   0.05
  17   1     0.00  -0.00  -0.00    -0.00  -0.00   0.01    -0.02  -0.01   0.02
  18   1     0.00   0.00  -0.00     0.01  -0.00   0.00     0.02  -0.01   0.01
  19   1     0.00   0.00  -0.00    -0.00   0.00  -0.00    -0.01   0.08  -0.05
  20   1     0.00   0.00  -0.00    -0.00   0.00  -0.00     0.02   0.02   0.07
  21   1    -0.01   0.01  -0.00     0.02   0.01   0.03     0.06  -0.02   0.05
  22   1    -0.01   0.01   0.00     0.03  -0.03  -0.01     0.07  -0.14  -0.05
  23   1    -0.01   0.01  -0.00     0.01   0.01   0.00     0.10   0.01  -0.00
  24   1    -0.00   0.00  -0.01    -0.00   0.01   0.00    -0.01   0.03   0.05
  25   1    -0.00  -0.01  -0.00     0.01   0.00   0.00     0.05   0.06   0.06
  26   1    -0.01  -0.01   0.01    -0.00   0.01  -0.00     0.02   0.15  -0.08
  27   1     0.01  -0.00  -0.00    -0.01  -0.00  -0.00    -0.06   0.05  -0.03
  28   1    -0.00  -0.00  -0.01    -0.00  -0.00   0.00    -0.04  -0.05   0.01
  29   7    -0.01   0.01  -0.03     0.01  -0.00  -0.01    -0.14  -0.22   0.15
  30   6    -0.00   0.02   0.00     0.02  -0.03   0.02    -0.10   0.14   0.07
  31   7     0.01  -0.00   0.01     0.00   0.01   0.02     0.08  -0.06  -0.04
  32   6     0.01  -0.00   0.01    -0.01   0.01  -0.00     0.12  -0.04   0.04
  33   6    -0.00  -0.01   0.00     0.01   0.01  -0.01    -0.02  -0.04   0.04
  34   6    -0.00  -0.00  -0.00    -0.00   0.00  -0.01    -0.03  -0.01   0.03
  35   6    -0.00   0.00   0.00     0.00  -0.01   0.01    -0.02   0.02  -0.04
  36   6     0.01   0.01   0.02    -0.03  -0.01  -0.01     0.04   0.18   0.15
  37   6     0.02   0.00   0.01    -0.00   0.01   0.03     0.13  -0.03  -0.10
  38   6     0.01   0.01  -0.02    -0.00  -0.00   0.02     0.05   0.02  -0.27
  39   6    -0.00  -0.00  -0.01     0.02  -0.00  -0.00    -0.18   0.05  -0.03
  40   1     0.00   0.00   0.00     0.00  -0.00  -0.00     0.00   0.03   0.02
  41   1     0.00  -0.00   0.00    -0.01   0.00  -0.01     0.07  -0.01   0.05
  42   1    -0.00   0.00  -0.00     0.00  -0.01  -0.00    -0.02   0.03  -0.01
  43   1    -0.00  -0.00   0.00     0.01   0.01  -0.00    -0.04  -0.04   0.03
  44   1    -0.00  -0.00  -0.00     0.00   0.00  -0.00    -0.02  -0.01   0.02
  45   1    -0.00   0.00   0.00    -0.01   0.00  -0.00     0.02  -0.01   0.01
  46   1    -0.00   0.00   0.00    -0.00  -0.00   0.00    -0.01   0.01  -0.09
  47   1    -0.00  -0.00   0.00     0.00  -0.00   0.00     0.02  -0.07   0.02
  48   1     0.00   0.00   0.01    -0.02   0.03  -0.01     0.06  -0.03   0.04
  49   1     0.01   0.01   0.01    -0.03  -0.02  -0.02     0.07   0.11   0.09
  50   1     0.01   0.00   0.01    -0.01   0.00   0.00     0.10  -0.01  -0.01
  51   1     0.00  -0.01   0.00     0.00   0.01   0.01    -0.01  -0.06  -0.00
  52   1    -0.00  -0.00  -0.00    -0.01   0.00   0.00     0.05  -0.08  -0.02
  53   1     0.01   0.00  -0.01     0.00  -0.00   0.01     0.02  -0.01  -0.17
  54   1    -0.01  -0.00   0.00     0.01  -0.00  -0.00    -0.06   0.00  -0.06
  55   1     0.00  -0.01   0.00     0.00   0.00  -0.00    -0.04   0.02   0.05
  56   6     0.03  -0.47  -0.32    -0.28  -0.40   0.38    -0.01  -0.01   0.05
  57   8    -0.09   0.18  -0.20     0.22   0.09   0.22     0.02  -0.01   0.04
  58   6    -0.03  -0.52  -0.24     0.28   0.11  -0.54    -0.02  -0.04   0.04
  59   8     0.09  -0.08   0.25    -0.22   0.24  -0.04     0.02  -0.03   0.03
                     40                     41                     42
                        a                      a                      a 
 Frequencies --   490.6728               509.8034               510.6022
 Red. masses --     9.6888                 8.9229                 7.1545
 Frc consts  --     0.0000                 0.0000                 0.0000
 IR Inten    --     5.8954                 0.0331                 0.0777
 Raman Activ --     0.0000                 0.0000                 0.0000
 Depolar     --     0.0000                 0.0000                 0.0000
 Atom AN      X      Y      Z        X      Y      Z        X      Y      Z
   1  28     0.00   0.01   0.01    -0.01  -0.05   0.09    -0.00   0.01   0.01
   2   7     0.14   0.02  -0.27     0.06  -0.16   0.04     0.05  -0.13  -0.00
   3   6     0.10   0.13   0.08     0.03   0.04   0.00     0.03   0.04   0.03
   4   7    -0.08  -0.07  -0.02     0.09   0.10  -0.23     0.07   0.08  -0.22
   5   6    -0.13   0.01  -0.06     0.21  -0.06   0.11     0.19  -0.10   0.12
   6   6     0.02   0.01  -0.06    -0.09   0.05   0.12    -0.11   0.08   0.14
   7   6     0.02   0.02  -0.02     0.07   0.06  -0.07     0.09   0.08  -0.10
   8   6     0.02  -0.02   0.04     0.05  -0.04   0.02     0.07  -0.07   0.04
   9   6    -0.04   0.22   0.08    -0.02   0.07   0.04    -0.07   0.09   0.05
  10   6    -0.12  -0.11   0.03    -0.11   0.17  -0.01    -0.08   0.13  -0.01
  11   6    -0.04  -0.22   0.16    -0.09  -0.04   0.04    -0.06  -0.03   0.02
  12   6     0.19  -0.00   0.05    -0.09  -0.14  -0.00    -0.08  -0.11   0.00
  13   1    -0.00   0.03   0.02     0.01  -0.07  -0.05    -0.00  -0.09  -0.08
  14   1    -0.08   0.04  -0.03     0.10  -0.09   0.09     0.10  -0.12   0.10
  15   1     0.02   0.01   0.03    -0.08  -0.07  -0.12    -0.09  -0.08  -0.12
  16   1     0.04   0.01  -0.05    -0.17   0.05   0.13    -0.19   0.07   0.13
  17   1     0.02   0.01  -0.02     0.06   0.07  -0.10     0.09   0.09  -0.14
  18   1    -0.02   0.01  -0.01    -0.05  -0.07  -0.06    -0.07  -0.09  -0.09
  19   1     0.01  -0.07   0.05     0.04  -0.08   0.03     0.05  -0.10   0.04
  20   1    -0.02  -0.02  -0.07    -0.04  -0.03  -0.05    -0.05  -0.04  -0.06
  21   1    -0.06   0.02  -0.05    -0.01   0.02  -0.02    -0.04   0.01  -0.05
  22   1    -0.06   0.14   0.05    -0.02   0.02   0.02    -0.06   0.05   0.04
  23   1    -0.09  -0.01   0.00    -0.05   0.03   0.01    -0.03   0.02   0.01
  24   1     0.01  -0.04  -0.05    -0.03   0.04  -0.01    -0.02   0.04  -0.00
  25   1    -0.05  -0.06  -0.05     0.04  -0.03  -0.01     0.04  -0.02  -0.01
  26   1    -0.02  -0.15   0.08    -0.06  -0.02   0.02    -0.04  -0.02   0.01
  27   1     0.06  -0.05   0.03    -0.02  -0.04   0.00    -0.03  -0.04   0.01
  28   1     0.04   0.05  -0.01    -0.03  -0.01  -0.01    -0.02  -0.00   0.00
  29   7    -0.14  -0.22   0.16     0.06   0.05   0.15    -0.04  -0.07  -0.10
  30   6    -0.10   0.14   0.07     0.03  -0.03  -0.03    -0.02   0.05   0.01
  31   7     0.08  -0.05  -0.05     0.09   0.15  -0.21    -0.06  -0.14   0.16
  32   6     0.13  -0.05   0.04     0.22  -0.07   0.12    -0.18   0.04  -0.15
  33   6    -0.02  -0.04   0.04    -0.10  -0.14   0.01     0.11   0.16  -0.00
  34   6    -0.03  -0.01   0.03     0.07   0.03  -0.09    -0.09  -0.05   0.12
  35   6    -0.02   0.02  -0.03     0.06   0.00   0.06    -0.08   0.00  -0.08
  36   6     0.04   0.18   0.15    -0.03  -0.08  -0.05     0.08   0.08   0.05
  37   6     0.11  -0.03  -0.12    -0.11  -0.08  -0.15     0.06   0.05   0.11
  38   6     0.04   0.03  -0.28    -0.09  -0.01   0.05     0.05   0.00  -0.02
  39   6    -0.19   0.05  -0.03    -0.09   0.07   0.12     0.07  -0.05  -0.08
  40   1     0.00   0.03   0.02     0.01   0.09   0.03     0.00  -0.11  -0.03
  41   1     0.08  -0.01   0.05     0.10  -0.03   0.13    -0.10   0.03  -0.15
  42   1    -0.02   0.04  -0.01    -0.08   0.15   0.00     0.08  -0.13  -0.01
  43   1    -0.05  -0.04   0.03    -0.18  -0.14   0.02     0.18   0.14  -0.01
  44   1    -0.02  -0.01   0.01     0.07   0.06  -0.13    -0.09  -0.07   0.15
  45   1     0.02  -0.01   0.01    -0.05   0.10   0.03     0.07  -0.12  -0.03
  46   1    -0.01   0.01  -0.09     0.04   0.02   0.09    -0.05  -0.02  -0.11
  47   1     0.02  -0.07   0.02    -0.04   0.07  -0.00     0.05  -0.07  -0.00
  48   1     0.06  -0.04   0.04    -0.02   0.01  -0.03     0.05  -0.05   0.03
  49   1     0.07   0.11   0.09    -0.03  -0.04  -0.01     0.07   0.07   0.03
  50   1     0.09  -0.01  -0.01    -0.05  -0.02  -0.02     0.02   0.01   0.01
  51   1    -0.02  -0.06  -0.00    -0.03  -0.02  -0.04     0.02   0.02   0.03
  52   1     0.05  -0.07  -0.02     0.04   0.02   0.02    -0.03  -0.01  -0.01
  53   1     0.02  -0.01  -0.17    -0.06  -0.00   0.03     0.03  -0.00  -0.01
  54   1    -0.06   0.00  -0.06    -0.02   0.02   0.04     0.03  -0.01  -0.03
  55   1    -0.04   0.02   0.05    -0.03   0.01   0.00     0.02   0.00  -0.00
  56   6    -0.05  -0.00   0.06     0.03  -0.01  -0.08    -0.01   0.02   0.00
  57   8     0.02  -0.00   0.01    -0.04   0.01  -0.05    -0.00  -0.00  -0.00
  58   6     0.05   0.05  -0.03     0.03   0.07  -0.03     0.01   0.02   0.01
  59   8    -0.02   0.01  -0.01    -0.04   0.04  -0.04    -0.00  -0.00  -0.01
                     43                     44                     45
                        a                      a                      a 
 Frequencies --   512.3692               513.3051               533.7902
 Red. masses --     7.8826                 8.6034                25.6998
 Frc consts  --     0.0000                 0.0000                 0.0000
 IR Inten    --     6.4998                 0.6251                10.3620
 Raman Activ --     0.0000                 0.0000                 0.0000
 Depolar     --     0.0000                 0.0000                 0.0000
 Atom AN      X      Y      Z        X      Y      Z        X      Y      Z
   1  28     0.01   0.04  -0.08     0.00   0.02   0.01    -0.03   0.26  -0.46
   2   7    -0.06   0.11  -0.08     0.08  -0.14   0.06     0.03  -0.04  -0.04
   3   6    -0.03  -0.01   0.13     0.05   0.03  -0.12     0.03   0.01  -0.04
   4   7    -0.08  -0.09   0.05     0.10   0.11  -0.12     0.03   0.02  -0.05
   5   6    -0.08  -0.15   0.01     0.14   0.12   0.02     0.06   0.01   0.02
   6   6    -0.07   0.10   0.10     0.04  -0.07  -0.06     0.00  -0.00  -0.00
   7   6     0.10   0.09  -0.13    -0.07  -0.07   0.10    -0.00  -0.00   0.01
   8   6     0.09  -0.08   0.07    -0.07   0.06  -0.06    -0.01  -0.00   0.01
[...]
   6   6     0.12   0.05   0.06    -0.01  -0.01  -0.01    -0.08   0.01   0.02
   7   6     0.05   0.05  -0.02    -0.01  -0.01   0.00    -0.06  -0.06   0.02
   8   6     0.01  -0.04   0.01    -0.00   0.00  -0.00    -0.03  -0.11  -0.03
   9   6    -0.12  -0.05  -0.12     0.01   0.01   0.02    -0.05  -0.02  -0.05
  10   6     0.00  -0.00   0.00    -0.00   0.00  -0.00    -0.00   0.00  -0.00
  11   6     0.00   0.01   0.00    -0.00  -0.00  -0.00     0.00   0.00   0.01
  12   6    -0.00   0.00   0.00     0.00  -0.00  -0.00     0.00   0.00  -0.00
  13   1    -0.14   0.21  -0.04     0.01  -0.02   0.00     0.07  -0.10   0.02
  14   1    -0.00  -0.03  -0.02     0.00   0.00   0.00     0.01   0.03   0.02
  15   1    -0.20   0.04   0.06     0.03  -0.01  -0.01     0.30  -0.05  -0.07
  16   1    -0.24  -0.22  -0.27     0.03   0.02   0.03    -0.02  -0.00  -0.00
  17   1    -0.12  -0.11  -0.15     0.01   0.01   0.02     0.16   0.14   0.20
  18   1    -0.06  -0.07   0.25     0.01   0.01  -0.03     0.07   0.07  -0.28
  19   1    -0.04  -0.04  -0.04     0.01   0.01   0.01     0.13   0.10   0.15
  20   1    -0.02   0.19  -0.02     0.00  -0.02   0.00    -0.04   0.30  -0.04
  21   1    -0.04   0.01  -0.01     0.01  -0.00   0.00    -0.01   0.00  -0.00
  22   1     0.48   0.16   0.47    -0.06  -0.02  -0.06     0.20   0.07   0.19
  23   1     0.00  -0.00  -0.00    -0.00   0.00   0.00    -0.00  -0.00  -0.00
  24   1    -0.01   0.01  -0.01     0.00  -0.00   0.00     0.01  -0.00   0.00
  25   1    -0.01  -0.02   0.00     0.00   0.00  -0.00     0.00   0.00   0.00
  26   1    -0.00  -0.01  -0.02     0.00   0.00   0.00    -0.00  -0.01  -0.03
  27   1    -0.00   0.00   0.00     0.00   0.00   0.00     0.00  -0.00  -0.00
  28   1     0.01   0.00  -0.01    -0.00   0.00   0.00    -0.01  -0.00   0.01
  29   7    -0.00  -0.00   0.00    -0.00  -0.00   0.00     0.00  -0.00  -0.00
  30   6     0.00  -0.00   0.00     0.01  -0.00   0.00    -0.00   0.00   0.00
  31   7    -0.00  -0.00  -0.00    -0.00  -0.00  -0.00    -0.00  -0.00  -0.00
  32   6    -0.01  -0.00  -0.01    -0.04  -0.01  -0.05    -0.02  -0.00  -0.02
  33   6    -0.01   0.01   0.00    -0.12   0.08   0.01    -0.07  -0.02  -0.00
  34   6    -0.01   0.00   0.01    -0.05   0.01   0.05    -0.06   0.01   0.06
  35   6    -0.00  -0.00  -0.01    -0.01  -0.01  -0.04    -0.03   0.08   0.07
  36   6     0.01  -0.02   0.00     0.12  -0.13   0.02    -0.05   0.05  -0.01
  37   6    -0.00   0.00  -0.00    -0.00   0.00  -0.00    -0.00  -0.00  -0.00
  38   6    -0.00   0.00   0.00    -0.00   0.01   0.00     0.00  -0.01   0.00
  39   6     0.00   0.00  -0.00     0.00   0.00  -0.00     0.00   0.00  -0.00
  40   1     0.02   0.01   0.03     0.14   0.08   0.20     0.06   0.03   0.09
  41   1     0.00  -0.01  -0.00     0.00  -0.03  -0.02     0.01  -0.03  -0.01
  42   1     0.02   0.01   0.00     0.20   0.07   0.01     0.27   0.07   0.01
  43   1     0.03  -0.05  -0.01     0.23  -0.35  -0.05    -0.02   0.00   0.00
  44   1     0.01  -0.02  -0.00     0.12  -0.19  -0.01     0.14  -0.22  -0.02
  45   1     0.01   0.02  -0.02     0.06   0.18  -0.19     0.06   0.18  -0.19
  46   1     0.00  -0.00  -0.00     0.04  -0.06  -0.01     0.12  -0.16  -0.00
  47   1     0.00   0.01   0.02     0.02   0.08   0.17    -0.03  -0.11  -0.25
  48   1     0.00  -0.00   0.00     0.04  -0.00   0.01    -0.01   0.00  -0.00
  49   1    -0.05   0.06  -0.01    -0.47   0.49  -0.10     0.18  -0.18   0.04
  50   1    -0.00   0.00  -0.00    -0.00  -0.00  -0.00    -0.00   0.00  -0.00
  51   1     0.00  -0.00   0.00     0.01  -0.00   0.01     0.00  -0.00   0.00
  52   1     0.00  -0.00  -0.00     0.01  -0.01  -0.02     0.00  -0.00   0.00
  53   1     0.00  -0.00   0.00     0.00  -0.02   0.00    -0.00   0.03  -0.00
  54   1     0.00   0.00  -0.00     0.00   0.00  -0.00     0.00   0.00  -0.00
  55   1    -0.00  -0.00   0.00    -0.01  -0.00   0.00    -0.01  -0.00   0.00
  56   6    -0.00   0.00  -0.00     0.00  -0.00   0.00    -0.00   0.00  -0.00
  57   8     0.00  -0.00   0.00    -0.00   0.00  -0.00     0.00  -0.00   0.00
  58   6     0.00   0.00  -0.00     0.00  -0.00   0.00    -0.00   0.00  -0.00
  59   8     0.00  -0.00   0.00    -0.00   0.00  -0.00     0.00  -0.00   0.00
                    163                    164                    165
                        a                      a                      a 
 Frequencies --  2985.4364              2987.3677              2987.4608
 Red. masses --     1.7400                 1.5847                 1.5920
 Frc consts  --     0.0000                 0.0000                 0.0000
 IR Inten    --    39.9168                 7.6035                97.7391
 Raman Activ --     0.0000                 0.0000                 0.0000
 Depolar     --     0.0000                 0.0000                 0.0000
 Atom AN      X      Y      Z        X      Y      Z        X      Y      Z
   1  28    -0.00   0.00   0.00    -0.00  -0.00   0.00     0.00   0.00   0.00
   2   7     0.00   0.00   0.00     0.00   0.00  -0.00    -0.00  -0.00   0.00
   3   6    -0.00  -0.00  -0.00    -0.00  -0.00  -0.00     0.00   0.00   0.00
   4   7    -0.00   0.00   0.00     0.00  -0.00   0.00    -0.00   0.00  -0.00
   5   6    -0.02   0.02  -0.01     0.02  -0.03  -0.00    -0.02   0.03   0.00
   6   6    -0.07   0.01   0.02     0.01  -0.08  -0.10    -0.01   0.08   0.10
   7   6    -0.06  -0.06   0.02    -0.01  -0.02  -0.03     0.01   0.02   0.03
   8   6    -0.03  -0.10  -0.03     0.01  -0.07   0.01    -0.01   0.07  -0.01
   9   6    -0.05  -0.02  -0.05    -0.01  -0.01  -0.02     0.01   0.01   0.02
  10   6    -0.00   0.00  -0.00     0.00  -0.00   0.00    -0.00   0.00  -0.00
  11   6     0.00   0.00   0.01     0.00   0.01   0.01    -0.01  -0.02  -0.02
  12   6    -0.00  -0.00   0.00     0.00   0.00   0.00    -0.00  -0.00  -0.00
  13   1     0.06  -0.10   0.02    -0.07   0.10  -0.02     0.07  -0.10   0.02
  14   1     0.01   0.03   0.02     0.01   0.02   0.02    -0.01  -0.02  -0.02
  15   1     0.28  -0.05  -0.06    -0.32   0.04   0.06     0.32  -0.04  -0.06
  16   1    -0.02  -0.00  -0.00     0.30   0.25   0.31    -0.30  -0.25  -0.31
  17   1     0.14   0.13   0.18     0.06   0.05   0.07    -0.06  -0.05  -0.07
  18   1     0.06   0.07  -0.25    -0.02  -0.02   0.05     0.02   0.02  -0.05
  19   1     0.12   0.09   0.13    -0.01  -0.02  -0.01     0.01   0.02   0.02
  20   1    -0.03   0.27  -0.04    -0.03   0.26  -0.03     0.03  -0.27   0.03
  21   1    -0.01   0.00  -0.00    -0.01   0.01   0.00     0.01  -0.01  -0.00
  22   1     0.18   0.06   0.17     0.06   0.02   0.06    -0.07  -0.02  -0.06
  23   1    -0.00  -0.00  -0.00     0.00   0.00   0.01    -0.00  -0.00  -0.00
  24   1     0.01  -0.01   0.01    -0.01   0.00  -0.01     0.01  -0.00   0.01
  25   1     0.00   0.00   0.00    -0.01  -0.03   0.00     0.01   0.05  -0.00
  26   1    -0.00  -0.01  -0.03    -0.00  -0.02  -0.06     0.00   0.04   0.09
  27   1    -0.00   0.00   0.00     0.00  -0.00  -0.00     0.00   0.00   0.00
  28   1     0.01   0.00  -0.00    -0.00   0.00   0.00     0.00  -0.00  -0.00
  29   7    -0.00   0.00   0.00     0.00   0.00  -0.00     0.00  -0.00  -0.00
  30   6     0.00  -0.00   0.00    -0.00   0.00  -0.00    -0.00   0.00  -0.00
  31   7     0.00   0.00   0.00     0.00   0.00   0.00     0.00   0.00   0.00
  32   6     0.02   0.00   0.02     0.02   0.02   0.03     0.02   0.02   0.03
  33   6     0.08   0.02   0.00     0.01   0.13   0.02     0.01   0.13   0.02
  34   6     0.06  -0.01  -0.06    -0.01   0.04  -0.00    -0.01   0.04  -0.00
  35   6     0.03  -0.08  -0.08     0.01   0.02   0.06     0.01   0.02   0.06
  36   6     0.05  -0.06   0.01    -0.01   0.02  -0.00    -0.01   0.02  -0.00
  37   6     0.00   0.00   0.00     0.00   0.00   0.00     0.00  -0.00   0.00
  38   6    -0.00   0.01  -0.00     0.00  -0.02  -0.00     0.00  -0.03  -0.01
  39   6     0.00   0.00  -0.00     0.00  -0.00  -0.00     0.00  -0.00  -0.00
  40   1    -0.07  -0.04  -0.10    -0.07  -0.04  -0.10    -0.07  -0.04  -0.10
  41   1    -0.01   0.04   0.01     0.01  -0.03  -0.00     0.01  -0.03  -0.00
  42   1    -0.31  -0.08  -0.01    -0.32  -0.07  -0.01    -0.31  -0.07  -0.01
  43   1     0.02  -0.00  -0.00     0.30  -0.40  -0.06     0.29  -0.39  -0.06
  44   1    -0.16   0.24   0.02     0.06  -0.09  -0.01     0.06  -0.09  -0.01
  45   1    -0.07  -0.20   0.21    -0.02  -0.03   0.04    -0.02  -0.03   0.04
  46   1    -0.12   0.17   0.00    -0.01   0.03   0.01    -0.01   0.03   0.01
  47   1     0.04   0.12   0.28    -0.03  -0.11  -0.24    -0.03  -0.11  -0.24
  48   1     0.01  -0.00   0.00    -0.01  -0.00  -0.01    -0.01  -0.00  -0.01
  49   1    -0.19   0.20  -0.04     0.06  -0.07   0.01     0.06  -0.07   0.01
  50   1     0.00  -0.00   0.00     0.00  -0.01   0.00     0.00  -0.00   0.00
  51   1    -0.01   0.00  -0.01    -0.01   0.00  -0.01    -0.01   0.00  -0.01
  52   1    -0.00   0.00   0.00    -0.01   0.01   0.03    -0.01   0.02   0.05
  53   1     0.00  -0.03   0.01    -0.00   0.06  -0.01    -0.00   0.10  -0.02
  54   1     0.00   0.00  -0.00     0.00   0.00  -0.00     0.00   0.00  -0.00
  55   1    -0.01  -0.00   0.00    -0.00  -0.00   0.00    -0.00  -0.00   0.00
  56   6    -0.00   0.00  -0.00     0.00  -0.00   0.00     0.00  -0.00   0.00
  57   8     0.00  -0.00   0.00    -0.00   0.00  -0.00    -0.00   0.00  -0.00
  58   6     0.00  -0.00   0.00     0.00  -0.00   0.00    -0.00   0.00  -0.00
  59   8    -0.00   0.00  -0.00    -0.00   0.00  -0.00     0.00  -0.00   0.00
                    166                    167                    168
                        a                      a                      a 
 Frequencies --  2989.8821              2990.3153              2993.2882
 Red. masses --     1.9457                 1.9355                 1.5699
 Frc consts  --     0.0000                 0.0000                 0.0000
 IR Inten    --     0.9792                98.9024                19.3886
 Raman Activ --     0.0000                 0.0000                 0.0000
 Depolar     --     0.0000                 0.0000                 0.0000
 Atom AN      X      Y      Z        X      Y      Z        X      Y      Z
   1  28    -0.00  -0.00   0.00    -0.00  -0.00   0.00     0.00   0.00   0.00
   2   7     0.00  -0.00   0.00     0.00  -0.00   0.00     0.00   0.00   0.00
   3   6     0.00   0.00  -0.00     0.00   0.00  -0.00    -0.00  -0.00  -0.00
   4   7    -0.00  -0.00   0.00    -0.00  -0.00   0.00     0.00  -0.00   0.00
   5   6     0.00  -0.00  -0.00     0.00  -0.01  -0.00    -0.00  -0.01  -0.01
   6   6    -0.00  -0.00  -0.01    -0.00  -0.01  -0.01    -0.01  -0.03  -0.03
   7   6    -0.00  -0.00   0.00    -0.00  -0.00  -0.00    -0.00   0.00  -0.06
   8   6     0.01  -0.01   0.01     0.01  -0.02   0.01    -0.10   0.05  -0.12
   9   6    -0.00  -0.00  -0.00    -0.00  -0.00  -0.01    -0.05  -0.01  -0.05
  10   6    -0.00  -0.01  -0.01    -0.00  -0.01  -0.02    -0.00  -0.00  -0.00
  11   6    -0.03  -0.13  -0.14    -0.03  -0.14  -0.15    -0.00  -0.01  -0.02
  12   6     0.00  -0.01  -0.02    -0.00  -0.01  -0.02    -0.00  -0.00  -0.00
  13   1    -0.01   0.01  -0.00    -0.01   0.02  -0.00    -0.00   0.00  -0.00
  14   1     0.00   0.00   0.00     0.00   0.01   0.01     0.01   0.02   0.02
  15   1    -0.02   0.00   0.00    -0.04   0.00   0.01    -0.07   0.01   0.01
  16   1     0.02   0.02   0.02     0.04   0.03   0.04     0.10   0.09   0.11
  17   1     0.01   0.01   0.01     0.01   0.01   0.02     0.04   0.04   0.04
  18   1     0.00   0.00  -0.01     0.00   0.00  -0.01    -0.04  -0.05   0.15
  19   1    -0.02  -0.02  -0.03    -0.02  -0.02  -0.02     0.33   0.29   0.38
  20   1    -0.01   0.07  -0.01    -0.01   0.09  -0.01     0.03  -0.47   0.04
  21   1    -0.01   0.00   0.00    -0.00   0.00   0.00     0.00  -0.01  -0.01
  22   1     0.02   0.01   0.01     0.02   0.01   0.02     0.16   0.05   0.16
  23   1     0.00   0.02   0.03     0.00   0.02   0.04     0.00   0.00   0.01
  24   1     0.01  -0.00   0.00     0.01  -0.00   0.00     0.00  -0.00   0.00
  25   1     0.08   0.27  -0.03     0.08   0.28  -0.03     0.00   0.00  -0.00
  26   1     0.03   0.20   0.54     0.03   0.22   0.58     0.00   0.02   0.06
  27   1     0.00   0.01   0.04     0.00   0.02   0.05     0.00   0.00   0.01
  28   1    -0.01  -0.00   0.01    -0.01  -0.00   0.00     0.00   0.00  -0.00
  29   7     0.00  -0.00   0.00    -0.00   0.00  -0.00    -0.00   0.00   0.00
  30   6     0.00   0.00  -0.00     0.00  -0.00   0.00     0.00  -0.00   0.00
  31   7    -0.00  -0.00   0.00    -0.00   0.00  -0.00    -0.00   0.00  -0.00
  32   6     0.00   0.00   0.00    -0.00  -0.00  -0.00     0.00  -0.01  -0.00
  33   6    -0.00   0.01   0.00     0.00  -0.02  -0.00     0.01  -0.03  -0.00
  34   6    -0.00   0.00   0.00     0.00  -0.00  -0.00     0.00  -0.03   0.02
  35   6     0.01  -0.00   0.02    -0.01  -0.00  -0.02     0.06  -0.05   0.06
  36   6    -0.00   0.01   0.00     0.00  -0.01   0.00     0.03  -0.03   0.01
  37   6    -0.00   0.02  -0.00     0.00  -0.02   0.00     0.00  -0.00   0.00
  38   6    -0.03   0.21   0.04     0.03  -0.19  -0.04     0.00  -0.01   0.00
  39   6     0.00   0.02  -0.00     0.00  -0.02   0.00     0.00  -0.00  -0.00
  40   1    -0.01  -0.00  -0.01     0.01   0.01   0.02     0.00  -0.00   0.00
  41   1     0.00  -0.01  -0.00    -0.00   0.01   0.00    -0.01   0.02   0.00
  42   1    -0.02  -0.00  -0.00     0.04   0.01   0.00     0.04   0.01   0.00
  43   1     0.02  -0.03  -0.00    -0.04   0.05   0.01    -0.06   0.09   0.01
  44   1     0.01  -0.01  -0.00    -0.01   0.02   0.00    -0.03   0.04   0.01
  45   1     0.00   0.01  -0.01    -0.00  -0.00   0.00     0.03   0.06  -0.07
  46   1    -0.02   0.04   0.01     0.02  -0.03  -0.00    -0.20   0.29   0.03
  47   1    -0.01  -0.03  -0.07     0.01   0.04   0.08    -0.02  -0.12  -0.26
  48   1    -0.01  -0.00  -0.00     0.00   0.00   0.00    -0.00  -0.01  -0.00
  49   1     0.02  -0.02   0.00    -0.02   0.02  -0.00    -0.10   0.10  -0.02
  50   1     0.00  -0.04   0.00    -0.00   0.04  -0.00    -0.00   0.00  -0.00
  51   1     0.01  -0.00   0.00    -0.01   0.00  -0.00    -0.00   0.00  -0.00
  52   1     0.08  -0.13  -0.27    -0.07   0.11   0.24     0.00  -0.00  -0.00
  53   1     0.02  -0.61   0.11    -0.02   0.56  -0.10    -0.00   0.04  -0.01
  54   1     0.00  -0.04   0.01    -0.00   0.05  -0.01    -0.00   0.01  -0.00
  55   1    -0.02  -0.00   0.00     0.01   0.00  -0.00    -0.01  -0.00   0.00
  56   6    -0.00   0.00  -0.00    -0.00   0.00  -0.00    -0.00   0.00  -0.00
  57   8     0.00  -0.00   0.00     0.00  -0.00   0.00     0.00  -0.00   0.00
  58   6    -0.00   0.00  -0.00     0.00  -0.00   0.00     0.00  -0.00   0.00
  59   8     0.00  -0.00   0.00    -0.00   0.00  -0.00    -0.00   0.00  -0.00
                    169                    170                    171
                        a                      a                      a 
 Frequencies --  2993.4193              2999.5847              2999.7401
 Red. masses --     1.5695                 1.5441                 1.5476
 Frc consts  --     0.0000                 0.0000                 0.0000
 IR Inten    --    95.1992                52.8984                37.8938
 Raman Activ --     0.0000                 0.0000                 0.0000
 Depolar     --     0.0000                 0.0000                 0.0000
 Atom AN      X      Y      Z        X      Y      Z        X      Y      Z
   1  28     0.00  -0.00   0.00    -0.00   0.00   0.00    -0.00  -0.00  -0.00
   2   7     0.00   0.00   0.00     0.00   0.00  -0.00     0.00   0.00   0.00
   3   6    -0.00  -0.00  -0.00    -0.00   0.00   0.00     0.00  -0.00   0.00
   4   7    -0.00  -0.00   0.00     0.00   0.00  -0.00    -0.00   0.00   0.00
   5   6    -0.00  -0.00  -0.00     0.00  -0.00   0.00     0.00  -0.00   0.00
   6   6    -0.01  -0.02  -0.02     0.00   0.00   0.00     0.00  -0.00  -0.00
   7   6    -0.00   0.00  -0.03     0.00   0.00   0.00     0.00   0.00  -0.00
   8   6    -0.06   0.03  -0.07     0.00   0.00   0.00    -0.00   0.00  -0.00
   9   6    -0.03  -0.01  -0.03     0.00   0.00   0.00    -0.00  -0.00  -0.00
  10   6    -0.00  -0.00  -0.00     0.00  -0.00   0.00     0.01  -0.01   0.01
  11   6    -0.00  -0.01  -0.01    -0.01  -0.03   0.02    -0.06  -0.18   0.11
  12   6     0.00  -0.00  -0.00    -0.00  -0.00   0.00    -0.02  -0.01   0.01
  13   1    -0.00  -0.00  -0.00    -0.00   0.00  -0.00    -0.00   0.01  -0.00
  14   1     0.01   0.01   0.01    -0.00  -0.00  -0.00     0.00   0.00   0.00
  15   1    -0.04   0.00   0.01     0.00   0.00   0.00    -0.01   0.00   0.00
  16   1     0.06   0.05   0.06    -0.00  -0.00  -0.00     0.00   0.00   0.00
  17   1     0.02   0.02   0.03    -0.00  -0.00  -0.00    -0.00  -0.00  -0.01
  18   1    -0.03  -0.03   0.09     0.00   0.00  -0.00    -0.00  -0.00   0.02
  19   1     0.20   0.18   0.23    -0.00  -0.00  -0.00     0.01   0.01   0.01
  20   1     0.02  -0.29   0.03     0.00  -0.00   0.00     0.00  -0.02   0.00
  21   1     0.00  -0.01  -0.01     0.00  -0.00   0.00    -0.00   0.00   0.00
  22   1     0.10   0.03   0.09    -0.00  -0.00  -0.00     0.00   0.00   0.00
  23   1     0.00   0.00   0.01     0.00  -0.00  -0.00     0.00   0.00   0.00
  24   1     0.00  -0.00   0.00    -0.01   0.00  -0.00    -0.03   0.01  -0.02
  25   1     0.00   0.01  -0.00     0.04   0.16  -0.00     0.23   0.82  -0.01
  26   1     0.00   0.02   0.04    -0.01  -0.04  -0.08    -0.03  -0.18  -0.38
  27   1     0.00   0.00   0.01    -0.00  -0.00   0.00    -0.00   0.00   0.00
  28   1    -0.01  -0.00   0.00     0.01   0.00  -0.01     0.06   0.00  -0.03
  29   7     0.00  -0.00   0.00     0.00  -0.00  -0.00     0.00   0.00  -0.00
  30   6    -0.00   0.00  -0.00     0.00  -0.00   0.00    -0.00  -0.00  -0.00
  31   7     0.00  -0.00   0.00    -0.00  -0.00  -0.00     0.00   0.00   0.00
  32   6    -0.00   0.01   0.00     0.00   0.00   0.00    -0.00  -0.00  -0.00
  33   6    -0.01   0.04   0.01     0.00   0.00   0.00    -0.00  -0.00  -0.00
  34   6    -0.00   0.05  -0.03     0.00   0.00  -0.00    -0.00  -0.00   0.00
  35   6    -0.10   0.08  -0.11    -0.00   0.00  -0.00     0.00  -0.00   0.00
  36   6    -0.05   0.04  -0.01    -0.00   0.00  -0.00     0.00  -0.00   0.00
  37   6    -0.00   0.00  -0.00     0.01  -0.00   0.01    -0.00   0.00  -0.00
  38   6    -0.00   0.02   0.00    -0.06  -0.00   0.21     0.01  -0.00  -0.04
  39   6     0.00   0.00  -0.00    -0.02  -0.01   0.01     0.00   0.00  -0.00
  40   1    -0.00   0.00  -0.00    -0.00  -0.00  -0.01     0.00   0.00   0.00
  41   1     0.01  -0.03  -0.01     0.00  -0.00  -0.00    -0.00   0.00   0.00
  42   1    -0.07  -0.01  -0.00    -0.01  -0.00  -0.00     0.01   0.00   0.00
  43   1     0.10  -0.14  -0.02     0.00  -0.00  -0.00    -0.00   0.00   0.00
  44   1     0.04  -0.06  -0.01    -0.00   0.01   0.00     0.00  -0.00   0.00
  45   1    -0.04  -0.11   0.12    -0.00  -0.01   0.01     0.00   0.01  -0.01
  46   1     0.33  -0.48  -0.05     0.01  -0.01  -0.00    -0.00   0.00   0.00
  47   1     0.04   0.21   0.43     0.00   0.01   0.02    -0.00  -0.00  -0.01
  48   1     0.01   0.01   0.00    -0.00  -0.00  -0.00     0.00   0.00   0.00
  49   1     0.16  -0.16   0.03     0.00  -0.00   0.00    -0.00   0.00  -0.00
  50   1     0.00  -0.01   0.00     0.00  -0.00   0.00    -0.00   0.00  -0.00
  51   1     0.00  -0.00   0.00    -0.03   0.01  -0.02     0.01  -0.00   0.01
  52   1     0.00  -0.00  -0.01     0.22  -0.42  -0.71    -0.04   0.08   0.14
  53   1     0.00  -0.07   0.01    -0.02   0.42  -0.04     0.00  -0.08   0.01
  54   1     0.00  -0.01   0.00    -0.00  -0.00   0.00     0.00   0.00  -0.00
  55   1    -0.00  -0.00   0.00     0.06   0.02  -0.02    -0.01  -0.00   0.00
  56   6    -0.00   0.00  -0.00    -0.00   0.00  -0.00     0.00  -0.00   0.00
  57   8     0.00  -0.00   0.00     0.00  -0.00   0.00    -0.00   0.00  -0.00
  58   6    -0.00   0.00  -0.00     0.00  -0.00   0.00    -0.00   0.00  -0.00
  59   8     0.00  -0.00   0.00    -0.00   0.00  -0.00     0.00  -0.00   0.00
