      -----------------------------------------------------------      
     |                   =====================                   |     
     |                           x T B                           |     
     |                   =====================                   |     
     |                         S. Grimme                         |     
     |          Mulliken Center for Theoretical Chemistry        |     
     |                    University of Bonn                     |     
      -----------------------------------------------------------      

   * xtb version 6.5.0 (97a52f5) compiled by 'conda@d2599ee0d4f4' on 2022-05-15

   xtb is free software: you can redistribute it and/or modify it under
   the terms of the GNU Lesser General Public License as published by
   the Free Software Foundation, either version 3 of the License, or
   (at your option) any later version.
   
   xtb is distributed in the hope that it will be useful,
   but WITHOUT ANY WARRANTY; without even the implied warranty of
   MERCHANTABILITY or FITNESS FOR A PARTICULAR PURPOSE.  See the
   GNU Lesser General Public License for more details.
   
   Cite this work as:
   * C. Bannwarth, E. Caldeweyher, S. Ehlert, A. Hansen, P. Pracht,
     J. Seibert, S. Spicher, S. Grimme, WIREs Comput. Mol. Sci., 2020, 11,
     e01493. DOI: 10.1002/wcms.1493
   
   for GFN2-xTB:
   * C. Bannwarth, S. Ehlert and S. Grimme., J. Chem. Theory Comput., 2019,
     15, 1652-1671. DOI: 10.1021/acs.jctc.8b01176
   for GFN1-xTB:
   * S. Grimme, C. Bannwarth, P. Shushkov, J. Chem. Theory Comput., 2017,
     13, 1989-2009. DOI: 10.1021/acs.jctc.7b00118
   for GFN0-xTB:
   * P. Pracht, E. Caldeweyher, S. Ehlert, S. Grimme, ChemRxiv, 2019, preprint.
     DOI: 10.26434/chemrxiv.8326202.v1
   for GFN-FF:
   * S. Spicher and S. Grimme, Angew. Chem. Int. Ed., 2020, 59, 15665-15673.
     DOI: 10.1002/anie.202004239
   
   for ALPB and GBSA implicit solvation:
   * S. Ehlert, M. Stahn, S. Spicher, S. Grimme, J. Chem. Theory Comput.,
     2021, 17, 4250-4261. DOI: 10.1021/acs.jctc.1c00471
   
   for DFT-D4:
   * E. Caldeweyher, C. Bannwarth and S. Grimme, J. Chem. Phys., 2017,
     147, 034112. DOI: 10.1063/1.4993215
   * E. Caldeweyher, S. Ehlert, A. Hansen, H. Neugebauer, S. Spicher,
     C. Bannwarth and S. Grimme, J. Chem. Phys., 2019, 150, 154122.
     DOI: 10.1063/1.5090222
   * E. Caldeweyher, J.-M. Mewes, S. Ehlert and S. Grimme, Phys. Chem. Chem. Phys.
     2020, 22, 8499-8512. DOI: 10.1039/D0CP00502A
   
   for sTDA-xTB:
   * S. Grimme and C. Bannwarth, J. Chem. Phys., 2016, 145, 054103.
     DOI: 10.1063/1.4959605
   
   in the mass-spec context:
   * V. Asgeirsson, C. Bauer and S. Grimme, Chem. Sci., 2017, 8, 4879.
     DOI: 10.1039/c7sc00601b
   * J. Koopman and S. Grimme, ACS Omega 2019, 4, 12, 15120-15133.
     DOI: 10.1021/acsomega.9b02011
   
   for metadynamics refer to:
   * S. Grimme, J. Chem. Theory Comput., 2019, 155, 2847-2862
     DOI: 10.1021/acs.jctc.9b00143
   
   for SPH calculations refer to:
   * S. Spicher and S. Grimme, J. Chem. Theory Comput., 2021, 17, 1701-1714
     DOI: 10.1021/acs.jctc.0c01306
   
   with help from (in alphabetical order)
   P. Atkinson, C. Bannwarth, F. Bohle, G. Brandenburg, E. Caldeweyher
   M. Checinski, S. Dohm, S. Ehlert, S. Ehrlich, I. Gerasimov, C. Hölzer
   A. Katbashev, J. Koopman, C. Lavigne, S. Lehtola, F. März, M. Müller,
   F. Musil, H. Neugebauer, J. Pisarek, C. Plett, P. Pracht, F. Pultar,
   J. Seibert, P. Shushkov, S. Spicher, M. Stahn, M. Steiner, T. Strunk,
   J. Stückrath, T. Rose, and J. Unsleber
   
 * started run on 2022/05/27 at 18:09:15.155     

           -------------------------------------------------
          |                Calculation Setup                |
           -------------------------------------------------

          program call               : xtb struc.xyz --gfn2 --hess
          hostname                   : fedora
          coordinate file            : struc.xyz
          omp threads                :                     1

   ID    Z sym.   atoms
    1   28 Ni     1
    2    7 N      2, 4, 29, 31
    3    6 C      3, 5-12, 30, 32-39, 56, 58
    4    1 H      13-28, 40-55
    5    8 O      57, 59

molecular fragmentation (1/2 indicates fragments):
11111111111111111111111111111111111111111111111111111111122
# atoms in fragment 1/2:    57     2
 fragment masses (1/2) :      391.18       28.01
CMA distance (Bohr)    :   6.010
constraining FC (au)   :  0.0500

           -------------------------------------------------
          |                 G F N 2 - x T B                 |
           -------------------------------------------------

        Reference                      10.1021/acs.jctc.8b01176
      * Hamiltonian:
        H0-scaling (s, p, d)           1.850000    2.230000    2.230000
        zeta-weighting                 0.500000
      * Dispersion:
        s8                             2.700000
        a1                             0.520000
        a2                             5.000000
        s9                             5.000000
      * Repulsion:
        kExp                           1.500000    1.000000
        rExp                           1.000000
      * Coulomb:
        alpha                          2.000000
        third order                    shell-resolved
        anisotropic                    true
        a3                             3.000000
        a5                             4.000000
        cn-shift                       1.200000
        cn-exp                         4.000000
        max-rad                        5.000000


          ...................................................
          :                      SETUP                      :
          :.................................................:
          :  # basis functions                 146          :
          :  # atomic orbitals                 145          :
          :  # shells                           87          :
          :  # electrons                       154          :
          :  max. iterations                   250          :
          :  Hamiltonian                  GFN2-xTB          :
          :  restarted?                      false          :
          :  GBSA solvation                  false          :
          :  PC potential                    false          :
          :  electronic temp.          300.0000000     K    :
          :  accuracy                    1.0000000          :
          :  -> integral cutoff          0.2500000E+02      :
          :  -> integral neglect         0.1000000E-07      :
          :  -> SCF convergence          0.1000000E-05 Eh   :
          :  -> wf. convergence          0.1000000E-03 e    :
          :  Broyden damping             0.4000000          :
          ...................................................

 iter      E             dE          RMSdq      gap      omega  full diag
   1    -84.6555458 -0.846555E+02  0.462E+00    3.87       0.0  T
   2    -84.8716942 -0.216148E+00  0.262E+00    3.07       1.0  T
   3    -84.8794864 -0.779223E-02  0.128E+00    2.10       1.0  T
   4    -84.9161040 -0.366176E-01  0.683E-01    2.32       1.0  T
   5    -84.9166721 -0.568101E-03  0.228E-01    2.38       1.0  T
   6    -84.9179997 -0.132762E-02  0.147E-01    2.35       1.0  T
   7    -84.9181305 -0.130854E-03  0.761E-02    2.36       1.0  T
   8    -84.9181488 -0.182247E-04  0.334E-02    2.36       1.0  T
   9    -84.9181606 -0.118631E-04  0.159E-02    2.35       1.0  T
  10    -84.9181569  0.376762E-05  0.133E-02    2.36       1.0  T
  11    -84.9181626 -0.576264E-05  0.338E-03    2.35       3.9  T
  12    -84.9181629 -0.305262E-06  0.110E-03    2.36      11.8  T
  13    -84.9181629 -0.113909E-07  0.473E-04    2.36      27.5  T
  14    -84.9181629 -0.549696E-08  0.283E-04    2.36      45.9  T

   *** convergence criteria satisfied after 14 iterations ***

         #    Occupation            Energy/Eh            Energy/eV
      -------------------------------------------------------------
         1        2.0000           -0.7159791             -19.4828
       ...           ...                  ...                  ...
        71        2.0000           -0.3617609              -9.8440
        72        2.0000           -0.3608828              -9.8201
        73        2.0000           -0.3278867              -8.9223
        74        2.0000           -0.3255854              -8.8596
        75        2.0000           -0.3181132              -8.6563
        76        2.0000           -0.3100169              -8.4360
        77        2.0000           -0.3087931              -8.4027 (HOMO)
        78                         -0.2222161              -6.0468 (LUMO)
        79                         -0.2145363              -5.8378
        80                         -0.2033638              -5.5338
        81                         -0.2004449              -5.4544
        82                         -0.1904486              -5.1824
       ...                                ...                  ...
       145                          1.2518864              34.0656
      -------------------------------------------------------------
                  HL-Gap            0.0865770 Eh            2.3559 eV
             Fermi-level           -0.2655046 Eh           -7.2247 eV

 SCC (total)                   0 d,  0 h,  0 min,  0.831 sec
 SCC setup                      ...        0 min,  0.000 sec (  0.032%)
 Dispersion                     ...        0 min,  0.008 sec (  0.937%)
 classical contributions        ...        0 min,  0.000 sec (  0.018%)
 integral evaluation            ...        0 min,  0.070 sec (  8.384%)
 iterations                     ...        0 min,  0.428 sec ( 51.444%)
 molecular gradient             ...        0 min,  0.325 sec ( 39.141%)
 printout                       ...        0 min,  0.000 sec (  0.042%)

         :::::::::::::::::::::::::::::::::::::::::::::::::::::
         ::                     SUMMARY                     ::
         :::::::::::::::::::::::::::::::::::::::::::::::::::::
         :: total energy             -83.871096521465 Eh    ::
         :: gradient norm              0.000191248349 Eh/a0 ::
         :: HOMO-LUMO gap              2.355881442116 eV    ::
         ::.................................................::
         :: SCC energy               -84.918162948221 Eh    ::
         :: -> isotropic ES            0.078318639287 Eh    ::
         :: -> anisotropic ES          0.017307129511 Eh    ::
         :: -> anisotropic XC          0.038439012582 Eh    ::
         :: -> dispersion             -0.066487691997 Eh    ::
         :: repulsion energy           1.045554291263 Eh    ::
         :: add. restraining           0.000000000000 Eh    ::
         :: total charge               0.000000000000 e     ::
         :::::::::::::::::::::::::::::::::::::::::::::::::::::

           ------------------------------------------------- 
          |                Numerical Hessian                |
           ------------------------------------------------- 
step length          :   0.00500
SCC accuracy         :   0.30000
Hessian scale factor :   1.00000
frozen atoms in %    :   0.00000    0
RMS gradient         :   0.00019
estimated CPU  time      0.38 min
estimated wall time      3.46 min

writing file <hessian>.

 projected vibrational frequencies (cm⁻¹)
eigval :       -0.00    -0.00    -0.00     0.00     0.00     0.00
eigval :       11.80    12.78    23.90    26.24    37.92    50.15
eigval :       51.99    60.43    64.81    69.80    75.67    83.71
eigval :       85.40    91.86    98.74   158.62   162.72   178.08
eigval :      188.61   220.66   235.26   238.86   243.77   252.67
eigval :      270.66   288.38   291.02   326.60   351.07   352.09
eigval :      367.64   367.99   375.25   375.54   416.41   417.09
eigval :      429.95   471.41   487.34   490.67   509.80   510.60
eigval :      512.37   513.31   533.79   599.83   601.17   673.51
eigval :      674.61   732.10   733.32   846.61   846.74   862.06
eigval :      862.34   877.37   877.37   899.50   901.04   908.54
eigval :      909.07   929.78   930.07   952.85   954.73   980.14
eigval :      980.18   996.15   996.57  1027.77  1028.15  1053.64
eigval :     1054.34  1088.64  1089.63  1101.43  1102.48  1114.33
eigval :     1114.68  1128.03  1130.37  1142.23  1142.37  1144.49
eigval :     1144.74  1162.85  1163.55  1191.74  1193.06  1201.16
eigval :     1201.30  1217.65  1218.03  1233.94  1234.00  1243.13
eigval :     1243.27  1256.97  1257.27  1271.42  1271.96  1301.91
eigval :     1306.91  1317.35  1318.12  1328.65  1328.70  1337.84
eigval :     1338.01  1340.08  1340.36  1344.40  1344.52  1353.92
eigval :     1354.03  1361.22  1361.48  1418.31  1419.90  1443.27
eigval :     1443.44  1472.42  1473.43  1475.43  1476.67  1476.70
eigval :     1477.76  1478.05  1479.43  1489.46  1489.53  1494.97
eigval :     1495.03  1499.41  1499.45  1646.81  1655.23  1974.09
eigval :     2000.34  2865.02  2865.23  2888.81  2889.53  2890.27
eigval :     2893.89  2920.59  2920.86  2928.91  2929.43  2959.03
eigval :     2959.10  2963.96  2966.69  2967.95  2968.01  2973.20
eigval :     2973.26  2975.55  2975.63  2979.59  2979.65  2985.01
eigval :     2985.44  2987.37  2987.46  2989.88  2990.32  2993.29
eigval :     2993.42  2999.58  2999.74
           -------------------------------------------------
          |                Property Printout                |
           -------------------------------------------------

    * Orbital Energies and Occupations

         #    Occupation            Energy/Eh            Energy/eV
      -------------------------------------------------------------
         1        2.0000           -0.7159781             -19.4828
       ...           ...                  ...                  ...
        65        2.0000           -0.4217378             -11.4761
        66        2.0000           -0.4217268             -11.4758
        67        2.0000           -0.4174816             -11.3603
        68        2.0000           -0.4168339             -11.3426
        69        2.0000           -0.3829941             -10.4218
        70        2.0000           -0.3804095             -10.3515
        71        2.0000           -0.3617609              -9.8440
        72        2.0000           -0.3608828              -9.8201
        73        2.0000           -0.3278857              -8.9222
        74        2.0000           -0.3255846              -8.8596
        75        2.0000           -0.3181125              -8.6563
        76        2.0000           -0.3100160              -8.4360
        77        2.0000           -0.3087919              -8.4027 (HOMO)
        78                         -0.2222154              -6.0468 (LUMO)
        79                         -0.2145356              -5.8378
        80                         -0.2033630              -5.5338
        81                         -0.2004443              -5.4544
        82                         -0.1904483              -5.1824
        83                         -0.1879310              -5.1139
        84                         -0.0117056              -0.3185
        85                         -0.0110237              -0.3000
        86                          0.0533441               1.4516
        87                          0.0548619               1.4929
        88                          0.0704579               1.9173
       ...                                ...                  ...
       145                          1.2518893              34.0656
      -------------------------------------------------------------
                  HL-Gap            0.0865765 Eh            2.3559 eV
             Fermi-level           -0.2655036 Eh           -7.2247 eV

     #   Z          covCN         q      C6AA      α(0)
     1  28 Ni       2.898    -0.893   202.986    29.397
     2   7 N        2.398    -0.110    23.536     7.204
     3   6 C        2.847     0.154    24.662     8.139
     4   7 N        2.739    -0.097    23.136     7.144
     5   6 C        3.746     0.000    20.641     6.480
     6   6 C        3.801    -0.061    21.675     6.628
     7   6 C        3.802    -0.058    21.615     6.619
     8   6 C        3.803    -0.052    21.509     6.603
     9   6 C        3.811    -0.071    21.846     6.653
    10   6 C        3.754     0.011    20.452     6.449
    11   6 C        3.806    -0.066    21.752     6.639
    12   6 C        3.767     0.022    20.242     6.412
    13   1 H        0.924     0.039     2.464     2.455
    14   1 H        0.924     0.046     2.366     2.405
    15   1 H        0.924     0.034     2.535     2.490
    16   1 H        0.924     0.039     2.459     2.452
    17   1 H        0.924     0.032     2.552     2.498
    18   1 H        0.924     0.032     2.557     2.501
    19   1 H        0.924     0.041     2.430     2.438
    20   1 H        0.924     0.040     2.450     2.448
    21   1 H        0.923     0.118     1.630     1.996
    22   1 H        0.924     0.044     2.401     2.423
    23   1 H        0.923     0.029     2.601     2.522
    24   1 H        0.924     0.034     2.537     2.491
    25   1 H        0.925     0.033     2.537     2.491
    26   1 H        0.924     0.047     2.356     2.400
    27   1 H        0.923     0.025     2.664     2.553
    28   1 H        0.924     0.067     2.115     2.275
    29   7 N        2.397    -0.111    23.539     7.204
    30   6 C        2.847     0.154    24.662     8.139
    31   7 N        2.739    -0.097    23.135     7.144
    32   6 C        3.746     0.000    20.640     6.480
    33   6 C        3.801    -0.061    21.675     6.628
    34   6 C        3.802    -0.058    21.615     6.619
    35   6 C        3.803    -0.052    21.509     6.603
    36   6 C        3.811    -0.071    21.846     6.653
    37   6 C        3.754     0.011    20.453     6.449
    38   6 C        3.806    -0.066    21.751     6.639
    39   6 C        3.768     0.022    20.242     6.412
    40   1 H        0.924     0.039     2.464     2.455
    41   1 H        0.924     0.046     2.366     2.406
    42   1 H        0.924     0.034     2.535     2.490
    43   1 H        0.924     0.039     2.459     2.452
    44   1 H        0.924     0.032     2.552     2.498
    45   1 H        0.924     0.032     2.557     2.501
    46   1 H        0.924     0.041     2.430     2.438
    47   1 H        0.924     0.040     2.450     2.448
    48   1 H        0.923     0.118     1.629     1.996
    49   1 H        0.924     0.044     2.401     2.423
    50   1 H        0.923     0.029     2.601     2.522
    51   1 H        0.924     0.034     2.537     2.491
    52   1 H        0.925     0.033     2.537     2.491
    53   1 H        0.924     0.047     2.355     2.400
    54   1 H        0.923     0.024     2.667     2.554
    55   1 H        0.924     0.067     2.117     2.275
    56   6 C        1.740     0.272    25.046     8.096
    57   8 O        0.856    -0.199    18.045     5.695
    58   6 C        1.740     0.272    25.045     8.096
    59   8 O        0.856    -0.199    18.046     5.696

 Mol. C6AA /au·bohr⁶  :      34075.229692
 Mol. C8AA /au·bohr⁸  :     865240.408848
 Mol. α(0) /au        :        284.596850


Wiberg/Mayer (AO) data.
largest (>0.10) Wiberg bond orders for each atom

 ---------------------------------------------------------------------------
     #   Z sym  total        # sym  WBO       # sym  WBO       # sym  WBO
 ---------------------------------------------------------------------------
     1  28 Ni   3.975 --    58 C    1.171    56 C    1.171     2 N    0.448
                            29 N    0.448    57 O    0.213    59 O    0.213
     2   7 N    3.427 --     3 C    1.626    12 C    1.005     1 Ni   0.448
                             4 N    0.160
     3   6 C    3.967 --     2 N    1.626     4 N    1.217     9 C    0.996
     4   7 N    3.460 --     3 C    1.217     5 C    0.994    10 C    0.989
                             2 N    0.160
     5   6 C    3.976 --     6 C    0.995     4 N    0.994    13 H    0.972
                            14 H    0.962
     6   6 C    3.996 --     7 C    1.009     5 C    0.995    15 H    0.977
                            16 H    0.976
     7   6 C    3.997 --     6 C    1.009     8 C    1.009    18 H    0.976
                            17 H    0.976
     8   6 C    3.996 --     7 C    1.009     9 C    0.991    19 H    0.976
                            20 H    0.976
     9   6 C    3.991 --     3 C    0.996     8 C    0.991    22 H    0.962
                            21 H    0.905
    10   6 C    3.980 --    11 C    1.005     4 N    0.989    24 H    0.968
                            23 H    0.967
    11   6 C    3.995 --    10 C    1.005    12 C    0.998    26 H    0.976
                            25 H    0.975
    12   6 C    3.990 --     2 N    1.005    11 C    0.998    27 H    0.961
                            28 H    0.954
    13   1 H    0.998 --     5 C    0.972
    14   1 H    0.998 --     5 C    0.962
    15   1 H    0.999 --     6 C    0.977
    16   1 H    0.998 --     6 C    0.976
    17   1 H    0.999 --     7 C    0.976
    18   1 H    0.999 --     7 C    0.976
    19   1 H    0.998 --     8 C    0.976
    20   1 H    0.998 --     8 C    0.976
    21   1 H    0.986 --     9 C    0.905
    22   1 H    0.998 --     9 C    0.962
    23   1 H    0.999 --    10 C    0.967
    24   1 H    0.998 --    10 C    0.968
    25   1 H    0.999 --    11 C    0.975
    26   1 H    0.998 --    11 C    0.976
    27   1 H    0.999 --    12 C    0.961
    28   1 H    0.995 --    12 C    0.954
    29   7 N    3.427 --    30 C    1.626    39 C    1.005     1 Ni   0.448
                            31 N    0.160
    30   6 C    3.967 --    29 N    1.626    31 N    1.217    36 C    0.996
    31   7 N    3.460 --    30 C    1.217    32 C    0.993    37 C    0.989
                            29 N    0.160
    32   6 C    3.976 --    33 C    0.995    31 N    0.993    40 H    0.973
                            41 H    0.962
    33   6 C    3.996 --    34 C    1.009    32 C    0.995    42 H    0.977
                            43 H    0.976
    34   6 C    3.997 --    33 C    1.009    35 C    1.009    45 H    0.976
                            44 H    0.976
    35   6 C    3.996 --    34 C    1.009    36 C    0.991    46 H    0.976
                            47 H    0.976
    36   6 C    3.991 --    30 C    0.996    35 C    0.991    49 H    0.962
                            48 H    0.905
    37   6 C    3.980 --    38 C    1.005    31 N    0.989    51 H    0.968
                            50 H    0.967
    38   6 C    3.995 --    37 C    1.005    39 C    0.998    53 H    0.976
                            52 H    0.975
    39   6 C    3.990 --    29 N    1.005    38 C    0.998    54 H    0.961
                            55 H    0.954
    40   1 H    0.998 --    32 C    0.973
    41   1 H    0.998 --    32 C    0.962
    42   1 H    0.999 --    33 C    0.977
    43   1 H    0.998 --    33 C    0.976
    44   1 H    0.999 --    34 C    0.976
    45   1 H    0.999 --    34 C    0.976
    46   1 H    0.998 --    35 C    0.976
    47   1 H    0.998 --    35 C    0.976
    48   1 H    0.986 --    36 C    0.905
    49   1 H    0.998 --    36 C    0.962
    50   1 H    0.999 --    37 C    0.967
    51   1 H    0.998 --    37 C    0.968
    52   1 H    0.999 --    38 C    0.975
    53   1 H    0.998 --    38 C    0.976
    54   1 H    0.999 --    39 C    0.961
    55   1 H    0.995 --    39 C    0.954
    56   6 C    3.496 --    57 O    2.210     1 Ni   1.171
    57   8 O    2.484 --    56 C    2.210     1 Ni   0.213
    58   6 C    3.496 --    59 O    2.210     1 Ni   1.171
    59   8 O    2.484 --    58 C    2.210     1 Ni   0.213
 ---------------------------------------------------------------------------

Topologies differ in total number of bonds
Writing topology from bond orders to xtbtopo.mol

molecular dipole:
                 x           y           z       tot (Debye)
 q only:        0.009       1.719       0.969
   full:        0.011       2.267       1.280       6.618
molecular quadrupole (traceless):
                xx          xy          yy          xz          yz          zz
 q only:       31.479       0.408     -15.420      -1.140       0.522     -16.059
  q+dip:       35.187      -2.304     -17.056       3.640       0.837     -18.131
   full:       35.292      -1.141     -16.727       1.572       1.481     -18.565

           -------------------------------------------------
          |               Frequency Printout                |
           -------------------------------------------------
 projected vibrational frequencies (cm⁻¹)
eigval :       -0.00    -0.00    -0.00     0.00     0.00     0.00
eigval :       11.80    12.78    23.90    26.24    37.92    50.15
eigval :       51.99    60.43    64.81    69.80    75.67    83.71
eigval :       85.40    91.86    98.74   158.62   162.72   178.08
eigval :      188.61   220.66   235.26   238.86   243.77   252.67
eigval :      270.66   288.38   291.02   326.60   351.07   352.09
eigval :      367.64   367.99   375.25   375.54   416.41   417.09
eigval :      429.95   471.41   487.34   490.67   509.80   510.60
eigval :      512.37   513.31   533.79   599.83   601.17   673.51
eigval :      674.61   732.10   733.32   846.61   846.74   862.06
eigval :      862.34   877.37   877.37   899.50   901.04   908.54
eigval :      909.07   929.78   930.07   952.85   954.73   980.14
eigval :      980.18   996.15   996.57  1027.77  1028.15  1053.64
eigval :     1054.34  1088.64  1089.63  1101.43  1102.48  1114.33
eigval :     1114.68  1128.03  1130.37  1142.23  1142.37  1144.49
eigval :     1144.74  1162.85  1163.55  1191.74  1193.06  1201.16
eigval :     1201.30  1217.65  1218.03  1233.94  1234.00  1243.13
eigval :     1243.27  1256.97  1257.27  1271.42  1271.96  1301.91
eigval :     1306.91  1317.35  1318.12  1328.65  1328.70  1337.84
eigval :     1338.01  1340.08  1340.36  1344.40  1344.52  1353.92
eigval :     1354.03  1361.22  1361.48  1418.31  1419.90  1443.27
eigval :     1443.44  1472.42  1473.43  1475.43  1476.67  1476.70
eigval :     1477.76  1478.05  1479.43  1489.46  1489.53  1494.97
eigval :     1495.03  1499.41  1499.45  1646.81  1655.23  1974.09
eigval :     2000.34  2865.02  2865.23  2888.81  2889.53  2890.27
eigval :     2893.89  2920.59  2920.86  2928.91  2929.43  2959.03
eigval :     2959.10  2963.96  2966.69  2967.95  2968.01  2973.20
eigval :     2973.26  2975.55  2975.63  2979.59  2979.65  2985.01
eigval :     2985.44  2987.37  2987.46  2989.88  2990.32  2993.29
eigval :     2993.42  2999.58  2999.74
 reduced masses (amu)
   1: 16.12   2: 12.54   3: 14.60   4: 18.16   5: 11.82   6: 17.48   7: 12.74   8: 13.83
   9: 12.42  10: 13.64  11: 13.57  12: 12.74  13: 12.84  14: 18.06  15: 12.47  16:  9.03
  17: 21.81  18: 11.67  19: 11.18  20: 10.29  21: 14.68  22: 19.65  23: 34.48  24: 10.54
  25: 16.98  26: 14.12  27: 10.95  28: 10.21  29:  8.70  30: 12.88  31: 14.58  32:  9.58
  33:  9.20  34: 19.33  35: 10.46  36:  9.51  37:  8.68  38:  9.15  39:  8.73  40:  8.64
  41:  8.32  42:  8.29  43: 21.22  44: 12.89  45: 10.06  46:  9.69  47:  8.92  48:  7.15
  49:  7.88  50:  8.60  51: 25.70  52:  9.59  53:  9.62  54:  8.81  55:  8.74  56:  9.92
  57:  9.91  58:  6.49  59:  6.48  60:  6.04  61:  6.02  62:  6.77  63:  6.75  64:  4.95
  65:  5.42  66:  6.28  67:  5.76  68:  6.15  69:  6.11  70:  8.39  71:  8.45  72:  7.25
  73:  7.25  74:  7.62  75:  7.63  76:  7.58  77:  7.51  78:  6.46  79:  6.46  80:  6.16
  81:  6.15  82:  6.92  83:  6.91  84:  6.30  85:  6.09  86:  7.43  87:  7.68  88:  7.23
  89:  7.29  90:  7.87  91:  7.90  92:  4.05  93:  4.06  94:  3.67  95:  3.77  96:  4.41
  97:  4.44  98:  4.57  99:  4.58 100:  4.09 101:  4.08 102:  3.09 103:  3.04 104:  3.88
 105:  3.84 106:  5.39 107:  5.43 108:  4.26 109:  4.04 110:  4.85 111:  4.81 112:  4.81
 113:  4.86 114:  4.97 115:  4.81 116:  5.64 117:  5.50 118:  4.60 119:  4.58 120:  4.95
 121:  4.94 122:  5.02 123:  5.00 124:  7.63 125:  7.75 126:  3.66 127:  3.66 128:  1.99
 129:  1.96 130:  2.01 131:  1.95 132:  1.96 133:  2.38 134:  2.22 135:  1.86 136:  1.97
 137:  1.94 138:  2.15 139:  2.15 140:  1.97 141:  1.98 142: 12.24 143: 12.29 144: 13.64
 145: 13.63 146:  1.83 147:  1.83 148:  1.76 149:  1.76 150:  1.77 151:  1.78 152:  1.79
 153:  1.79 154:  1.59 155:  1.59 156:  1.89 157:  1.89 158:  1.67 159:  1.66 160:  1.79
 161:  1.79 162:  1.83 163:  1.83 164:  1.67 165:  1.67 166:  1.74 167:  1.74 168:  1.74
 169:  1.74 170:  1.58 171:  1.59 172:  1.95 173:  1.94 174:  1.57 175:  1.57 176:  1.54
 177:  1.55
 IR intensities (km·mol⁻¹)
   1:  0.20   2:  0.59   3:  0.27   4:  0.07   5:  0.57   6:  0.87   7:  0.75   8:  1.07
   9:  0.23  10:  0.09  11:  0.81  12:  0.13  13:  0.04  14:  0.30  15:  0.46  16:  0.05
  17:  1.80  18:  1.13  19:  0.04  20:  0.51  21:  1.25  22:  0.09  23:  0.35  24:  3.47
  25:  0.61  26:  1.49  27:  0.03  28:  0.29  29:  3.12  30:  8.40  31:  2.83  32:  1.96
  33:  0.02  34:  1.61  35:  0.75  36:  0.64  37:  0.26  38:  0.22  39:  1.48  40: 11.32
  41:  9.88  42:  1.96  43: 14.58  44:  0.14  45:  4.18  46:  5.90  47:  0.03  48:  0.08
  49:  6.50  50:  0.63  51: 10.36  52:  5.16  53:  7.97  54:  9.39  55:  0.68  56:  0.07
  57:  1.62  58:  1.51  59:  0.63  60:  3.55  61:  7.74  62:  2.63  63:  6.61  64:  4.45
  65:  0.09  66:  0.39  67:  0.17  68:  7.56  69:  1.57  70:  0.62  71:  2.19  72:  8.75
  73:  7.45  74:  0.11  75:  7.89  76: 34.34  77:  6.64  78: 13.98  79:  3.26  80: 11.91
  81:  0.98  82: 12.75  83:  0.15  84:  6.49  85:  0.72  86: 13.98  87: 12.98  88:  4.13
  89:  0.22  90:  0.38  91:  0.58  92: 13.72  93:  4.82  94: 15.80  95:  6.05  96: 14.80
  97:  1.41  98:  9.47  99:  2.64 100: 14.00 101:  0.94 102:  0.93 103: 13.26 104:  2.08
 105:  2.82 106: 25.67 107:  0.86 108: 64.00 109:  1.18 110: 16.61 111:  6.50 112:  2.97
 113:  9.07 114: 13.15 115: 21.87 116: 27.07 117: 22.00 118: 36.83 119:  2.50 120:  0.37
 121:  0.64 122: 16.76 123:  3.84 124:120.03 125: 37.09 126: 32.76 127: 30.62 128: 10.33
 129:  1.24 130:  2.48 131:  0.77 132:  0.25 133:  0.50 134:  5.04 135:  1.09 136:  6.94
 137:  0.71 138:  1.57 139:  2.76 140:  0.37 141:  0.44 142:****** 143: 55.42 144:******
 145:512.84 146: 16.94 147: 52.73 148: 13.37 149:  2.63 150: 13.52 151: 68.61 152: 25.96
 153: 24.80 154: 77.45 155: 49.47 156: 13.52 157: 17.00 158: 40.30 159:  0.31 160:  1.25
 161:  1.92 162:  6.15 163:  8.86 164: 43.94 165: 50.64 166: 13.45 167: 20.71 168:217.84
 169: 39.92 170:  7.60 171: 97.74 172:  0.98 173: 98.90 174: 19.39 175: 95.20 176: 52.90
 177: 37.89
 Raman intensities (amu)
   1:  0.00   2:  0.00   3:  0.00   4:  0.00   5:  0.00   6:  0.00   7:  0.00   8:  0.00
   9:  0.00  10:  0.00  11:  0.00  12:  0.00  13:  0.00  14:  0.00  15:  0.00  16:  0.00
  17:  0.00  18:  0.00  19:  0.00  20:  0.00  21:  0.00  22:  0.00  23:  0.00  24:  0.00
  25:  0.00  26:  0.00  27:  0.00  28:  0.00  29:  0.00  30:  0.00  31:  0.00  32:  0.00
  33:  0.00  34:  0.00  35:  0.00  36:  0.00  37:  0.00  38:  0.00  39:  0.00  40:  0.00
  41:  0.00  42:  0.00  43:  0.00  44:  0.00  45:  0.00  46:  0.00  47:  0.00  48:  0.00
  49:  0.00  50:  0.00  51:  0.00  52:  0.00  53:  0.00  54:  0.00  55:  0.00  56:  0.00
  57:  0.00  58:  0.00  59:  0.00  60:  0.00  61:  0.00  62:  0.00  63:  0.00  64:  0.00
  65:  0.00  66:  0.00  67:  0.00  68:  0.00  69:  0.00  70:  0.00  71:  0.00  72:  0.00
  73:  0.00  74:  0.00  75:  0.00  76:  0.00  77:  0.00  78:  0.00  79:  0.00  80:  0.00
  81:  0.00  82:  0.00  83:  0.00  84:  0.00  85:  0.00  86:  0.00  87:  0.00  88:  0.00
  89:  0.00  90:  0.00  91:  0.00  92:  0.00  93:  0.00  94:  0.00  95:  0.00  96:  0.00
  97:  0.00  98:  0.00  99:  0.00 100:  0.00 101:  0.00 102:  0.00 103:  0.00 104:  0.00
 105:  0.00 106:  0.00 107:  0.00 108:  0.00 109:  0.00 110:  0.00 111:  0.00 112:  0.00
 113:  0.00 114:  0.00 115:  0.00 116:  0.00 117:  0.00 118:  0.00 119:  0.00 120:  0.00
 121:  0.00 122:  0.00 123:  0.00 124:  0.00 125:  0.00 126:  0.00 127:  0.00 128:  0.00
 129:  0.00 130:  0.00 131:  0.00 132:  0.00 133:  0.00 134:  0.00 135:  0.00 136:  0.00
 137:  0.00 138:  0.00 139:  0.00 140:  0.00 141:  0.00 142:  0.00 143:  0.00 144:  0.00
 145:  0.00 146:  0.00 147:  0.00 148:  0.00 149:  0.00 150:  0.00 151:  0.00 152:  0.00
 153:  0.00 154:  0.00 155:  0.00 156:  0.00 157:  0.00 158:  0.00 159:  0.00 160:  0.00
 161:  0.00 162:  0.00 163:  0.00 164:  0.00 165:  0.00 166:  0.00 167:  0.00 168:  0.00
 169:  0.00 170:  0.00 171:  0.00 172:  0.00 173:  0.00 174:  0.00 175:  0.00 176:  0.00
 177:  0.00
 output can be read by thermo (or use thermo option).
 writing <g98.out> molden fake output.
 recommended (thermochemical) frequency scaling factor: 1.0
           -------------------------------------------------
          |             Thermodynamic Functions             |
Molecule has the following symmetry elements: (C2) 
It seems to be the C2 point group
           -------------------------------------------------

c2  symmetry found (for desy threshold:  0.10E+00) used in thermo

          ...................................................
          :                      SETUP                      :
          :.................................................:
          :  # frequencies                         171      :
          :  # imaginary freq.                       0      :
          :  linear?                             false      :
          :  only rotor calc.                    false      :
          :  symmetry                               c2      :
          :  rotational number                       2      :
          :  scaling factor                  1.0000000      :
          :  rotor cutoff                   50.0000000 cm⁻¹ :
          :  imag. cutoff                  -20.0000000 cm⁻¹ :
          :.................................................:

    mode    ω/cm⁻¹     T·S(HO)/kcal·mol⁻¹    T·S(FR)/kcal·mol⁻¹   T·S(vib)
   ------------------------------------------------------------------------
       1     11.80    -2.29050 (  0.31%)    -1.48422 ( 99.69%)    -1.48671
       2     12.78    -2.24309 (  0.43%)    -1.46052 ( 99.57%)    -1.46385
       3     23.90    -1.87259 (  4.96%)    -1.27519 ( 95.04%)    -1.30482
       4     26.24    -1.81733 (  7.05%)    -1.24754 ( 92.95%)    -1.28769
       5     37.92    -1.59952 ( 24.86%)    -1.13843 ( 75.14%)    -1.25306
       6     50.15    -1.43453 ( 50.30%)    -1.05564 ( 49.70%)    -1.24622
       7     51.99    -1.41333 ( 53.89%)    -1.04498 ( 46.11%)    -1.24348
       8     60.43    -1.32473 ( 68.08%)    -1.00042 ( 31.92%)    -1.22123
       9     64.81    -1.28353 ( 73.85%)    -0.97966 ( 26.15%)    -1.20406
      10     69.80    -1.24002 ( 79.16%)    -0.95771 ( 20.84%)    -1.18117
      11     75.67    -1.19264 ( 83.99%)    -0.93378 ( 16.01%)    -1.15120
      12     83.71    -1.13352 ( 88.71%)    -0.90385 ( 11.29%)    -1.10759
      13     85.40    -1.12186 ( 89.49%)    -0.89795 ( 10.51%)    -1.09832
      14     91.86    -1.07931 ( 91.93%)    -0.87634 (  8.07%)    -1.06293
      15     98.74    -1.03730 ( 93.83%)    -0.85497 (  6.17%)    -1.02605
      16    158.62    -0.76512 ( 99.02%)    -0.71454 (  0.98%)    -0.76462
      17    162.72    -0.75072 ( 99.12%)    -0.70698 (  0.88%)    -0.75034
      18    178.08    -0.70018 ( 99.38%)    -0.68025 (  0.62%)    -0.70005
      19    188.61    -0.66829 ( 99.51%)    -0.66323 (  0.49%)    -0.66826
      20    220.66    -0.58249 ( 99.74%)    -0.61675 (  0.26%)    -0.58258
      21    235.26    -0.54813 ( 99.80%)    -0.59777 (  0.20%)    -0.54824
      22    238.86    -0.54006 ( 99.81%)    -0.59327 (  0.19%)    -0.54016
      23    243.77    -0.52927 ( 99.82%)    -0.58724 (  0.18%)    -0.52937
      24    252.67    -0.51039 ( 99.85%)    -0.57661 (  0.15%)    -0.51050
      25    270.66    -0.47466 ( 99.88%)    -0.55625 (  0.12%)    -0.47476
      26    288.38    -0.44230 ( 99.91%)    -0.53746 (  0.09%)    -0.44238
      27    291.02    -0.43770 ( 99.91%)    -0.53476 (  0.09%)    -0.43778
   ------------------------------------------------------------------------

   temp. (K)  partition function   enthalpy   heat capacity  entropy
                                   cal/mol     cal/K/mol   cal/K/mol   J/K/mol
 298.15  VIB  0.125E+15            16514.099    101.490    107.329
         ROT  0.774E+07              888.752      2.981     34.503
         INT  0.966E+21            17402.851    104.470    141.832
         TR   0.830E+28             1481.254      4.968     43.970
         TOT                       18884.1050   109.4386   185.8023   777.3967

       T/K    H(0)-H(T)+PV         H(T)/Eh          T*S/Eh         G(T)/Eh
   ------------------------------------------------------------------------
    298.15    0.300937E-01    0.528511E+00    0.882807E-01    0.440231E+00
   ------------------------------------------------------------------------

         :::::::::::::::::::::::::::::::::::::::::::::::::::::
         ::                  THERMODYNAMIC                  ::
         :::::::::::::::::::::::::::::::::::::::::::::::::::::
         :: total free energy         -83.430865925583 Eh   ::
         ::.................................................::
         :: total energy              -83.871096523416 Eh   ::
         :: zero point energy           0.498417514276 Eh   ::
         :: G(RRHO) w/o ZPVE           -0.058186916442 Eh   ::
         :: G(RRHO) contrib.            0.440230597834 Eh   ::
         :::::::::::::::::::::::::::::::::::::::::::::::::::::

           -------------------------------------------------
          | TOTAL ENERGY              -83.871096523416 Eh   |
          | TOTAL ENTHALPY            -83.342585272275 Eh   |
          | TOTAL FREE ENERGY         -83.430865925583 Eh   |
          | GRADIENT NORM               0.000189225939 Eh/α |
          | HOMO-LUMO GAP               2.355866344130 eV   |
           -------------------------------------------------

------------------------------------------------------------------------
 * finished run on 2022/05/27 at 18:12:02.326     
------------------------------------------------------------------------
 total:
 * wall-time:     0 d,  0 h,  2 min, 47.172 sec
 *  cpu-time:     0 d,  0 h,  0 min, 22.620 sec
 * ratio c/w:     0.135 speedup
 SCF:
 * wall-time:     0 d,  0 h,  0 min,  0.831 sec
 *  cpu-time:     0 d,  0 h,  0 min,  0.099 sec
 * ratio c/w:     0.119 speedup
 analytical hessian:
 * wall-time:     0 d,  0 h,  2 min, 46.014 sec
 *  cpu-time:     0 d,  0 h,  0 min, 22.482 sec
 * ratio c/w:     0.135 speedup

